ITEM: TIMESTEP
22000
ITEM: NUMBER OF ATOMS
6300
ITEM: BOX BOUNDS mm mm mm
-0.329951 0.330136
-0.302482 0.338348
0 0.5
ITEM: ATOMS id type mol x y z vx vy vz fx fy fz omegax omegay omegaz radius 
1 1 1 -0.119396 -0.11832 0.0975785 -0.0951935 0.0574807 -0.140183 -0.0344358 0.106822 0.554436 2.88483 0.462421 0.535426 0.01 
2 1 1 -0.119487 -0.119601 0.106486 -0.0903883 0.031734 -0.143836 0 0 0 2.88483 0.462421 0.535426 0.01 
3 1 1 -0.119579 -0.120882 0.115394 -0.0855831 0.00598729 -0.14749 0 0 0 2.88483 0.462421 0.535426 0.01 
4 1 1 -0.11967 -0.122163 0.124302 -0.080778 -0.0197594 -0.151144 0 0 0 2.88483 0.462421 0.535426 0.01 
5 1 1 -0.119762 -0.123445 0.13321 -0.0759728 -0.0455061 -0.154798 0 0 0 2.88483 0.462421 0.535426 0.01 
6 1 1 -0.119853 -0.124726 0.142118 -0.0711676 -0.0712528 -0.158451 0 0 0 2.88483 0.462421 0.535426 0.01 
7 1 1 -0.119945 -0.126007 0.151026 -0.0663625 -0.0969994 -0.162105 0 0 0 2.88483 0.462421 0.535426 0.01 
8 1 1 -0.120036 -0.127288 0.159934 -0.0615573 -0.122746 -0.165759 0.967087 -1.74548 -1.65766 2.88483 0.462421 0.535426 0.01 
9 1 1 -0.120128 -0.128569 0.168841 -0.0567522 -0.148493 -0.169413 0 0 0 2.88483 0.462421 0.535426 0.01 
10 1 1 -0.120219 -0.12985 0.177749 -0.051947 -0.17424 -0.173066 0 0 0 2.88483 0.462421 0.535426 0.01 
11 1 2 -0.0223605 -0.114794 0.0409859 0.0031757 -0.194941 -0.0654808 -1.41201 1.76291 0.919294 -1.07203 -0.367522 1.5352 0.01 
12 1 2 -0.0242761 -0.11454 0.049776 -0.000444499 -0.188459 -0.0664569 0 0 0 -1.07203 -0.367522 1.5352 0.01 
13 1 2 -0.0261917 -0.114286 0.0585661 -0.0040647 -0.181976 -0.0674331 0 0 0 -1.07203 -0.367522 1.5352 0.01 
14 1 2 -0.0281073 -0.114032 0.0673562 -0.0076849 -0.175494 -0.0684092 0 0 0 -1.07203 -0.367522 1.5352 0.01 
15 1 2 -0.0300229 -0.113778 0.0761463 -0.0113051 -0.169012 -0.0693853 0 0 0 -1.07203 -0.367522 1.5352 0.01 
16 1 2 -0.0319386 -0.113525 0.0849364 -0.0149253 -0.162529 -0.0703614 0.575559 -3.28819 1.44048 -1.07203 -0.367522 1.5352 0.01 
17 1 2 -0.0338542 -0.113271 0.0937265 -0.0185455 -0.156047 -0.0713375 1.37537 -0.232715 1.50449 -1.07203 -0.367522 1.5352 0.01 
18 1 2 -0.0357698 -0.113017 0.102517 -0.0221657 -0.149564 -0.0723137 0 0 0 -1.07203 -0.367522 1.5352 0.01 
19 1 2 -0.0376854 -0.112763 0.111307 -0.0257859 -0.143082 -0.0732898 0 0 0 -1.07203 -0.367522 1.5352 0.01 
20 1 2 -0.039601 -0.112509 0.120097 -0.0294061 -0.1366 -0.0742659 -1.0635 1.82402 -2.57934 -1.07203 -0.367522 1.5352 0.01 
21 1 3 -0.0275305 -0.0338892 0.00988072 -0.0369328 0.0393228 -0.00642339 -0.178323 -0.58424 1.21834 -1.86047 -4.37516 9.52172 0.01 
22 1 3 -0.0302653 -0.0383062 0.0172299 -0.0270298 0.026955 -0.0101713 0 0 0 -1.86047 -4.37516 9.52172 0.01 
23 1 3 -0.0330002 -0.0427231 0.0245791 -0.0171268 0.0145872 -0.0139193 0 0 0 -1.86047 -4.37516 9.52172 0.01 
24 1 3 -0.0357351 -0.0471401 0.0319284 -0.00722381 0.00221944 -0.0176672 0 0 0 -1.86047 -4.37516 9.52172 0.01 
25 1 3 -0.03847 -0.051557 0.0392776 0.00267919 -0.0101484 -0.0214152 0 0 0 -1.86047 -4.37516 9.52172 0.01 
26 1 3 -0.0412049 -0.055974 0.0466268 0.0125822 -0.0225162 -0.0251631 0 0 0 -1.86047 -4.37516 9.52172 0.01 
27 1 3 -0.0439398 -0.0603909 0.053976 0.0224852 -0.0348839 -0.028911 0 0 0 -1.86047 -4.37516 9.52172 0.01 
28 1 3 -0.0466746 -0.0648079 0.0613252 0.0323882 -0.0472517 -0.032659 0 0 0 -1.86047 -4.37516 9.52172 0.01 
29 1 3 -0.0494095 -0.0692248 0.0686744 0.0422912 -0.0596195 -0.0364069 0.0454084 -0.0621361 -0.081626 -1.86047 -4.37516 9.52172 0.01 
30 1 3 -0.0521444 -0.0736418 0.0760236 0.0521942 -0.0719873 -0.0401549 -0.0154104 0.664709 -0.805472 -1.86047 -4.37516 9.52172 0.01 
31 1 4 -0.0884515 0.112616 0.00994595 -0.0190117 0.0490218 -0.002651 0.0649458 -0.176171 0.375522 -2.06017 -0.477927 0.304831 0.01 
32 1 4 -0.0889262 0.115148 0.0185694 -0.0239049 0.0666428 -0.00809429 0 0 0 -2.06017 -0.477927 0.304831 0.01 
33 1 4 -0.089401 0.11768 0.0271928 -0.0287981 0.0842639 -0.0135376 0 0 0 -2.06017 -0.477927 0.304831 0.01 
34 1 4 -0.0898758 0.120212 0.0358162 -0.0336913 0.101885 -0.0189809 0 0 0 -2.06017 -0.477927 0.304831 0.01 
35 1 4 -0.0903505 0.122744 0.0444397 -0.0385845 0.119506 -0.0244242 0 0 0 -2.06017 -0.477927 0.304831 0.01 
36 1 4 -0.0908253 0.125276 0.0530631 -0.0434777 0.137127 -0.0298674 0 0 0 -2.06017 -0.477927 0.304831 0.01 
37 1 4 -0.0913 0.127808 0.0616865 -0.0483709 0.154748 -0.0353107 0 0 0 -2.06017 -0.477927 0.304831 0.01 
38 1 4 -0.0917748 0.13034 0.07031 -0.0532641 0.172369 -0.040754 0 0 0 -2.06017 -0.477927 0.304831 0.01 
39 1 4 -0.0922495 0.132872 0.0789334 -0.0581573 0.18999 -0.0461973 -0.075328 0.256427 -0.224196 -2.06017 -0.477927 0.304831 0.01 
40 1 4 -0.0927243 0.135404 0.0875568 -0.0630505 0.207611 -0.0516406 -0.0629424 -0.23456 -0.0350734 -2.06017 -0.477927 0.304831 0.01 
41 1 5 0.0789473 -0.134786 0.0099084 0.0139117 -0.00163007 0.000728999 -0.620217 0.0402056 0.918678 0.358248 1.49809 3.20609 0.01 
42 1 5 0.0795586 -0.133374 0.018776 0.0226707 -0.00284708 0.000318926 0 0 0 0.358248 1.49809 3.20609 0.01 
43 1 5 0.0801699 -0.131963 0.0276436 0.0314298 -0.00406408 -9.11459e-05 0 0 0 0.358248 1.49809 3.20609 0.01 
44 1 5 0.0807811 -0.130551 0.0365111 0.0401888 -0.00528108 -0.000501218 0.962201 -0.0820512 -0.39906 0.358248 1.49809 3.20609 0.01 
45 1 5 0.0813924 -0.12914 0.0453787 0.0489478 -0.00649808 -0.00091129 0 0 0 0.358248 1.49809 3.20609 0.01 
46 1 5 0.0820037 -0.127728 0.0542463 0.0577069 -0.00771508 -0.00132136 0 0 0 0.358248 1.49809 3.20609 0.01 
47 1 5 0.082615 -0.126317 0.0631139 0.0664659 -0.00893208 -0.00173143 0 0 0 0.358248 1.49809 3.20609 0.01 
48 1 5 0.0832262 -0.124905 0.0719815 0.0752249 -0.0101491 -0.00214151 0 0 0 0.358248 1.49809 3.20609 0.01 
49 1 5 0.0838375 -0.123494 0.0808491 0.0839839 -0.0113661 -0.00255158 -0.968443 -0.102217 0.311301 0.358248 1.49809 3.20609 0.01 
50 1 5 0.0844488 -0.122082 0.0897166 0.092743 -0.0125831 -0.00296165 0.612081 -0.536147 -0.906435 0.358248 1.49809 3.20609 0.01 
51 1 6 0.176511 -0.0385721 0.010343 0.097539 0.176553 0.0384357 -0.520875 0.107817 0.187083 10.5938 0.451216 -8.15632 0.01 
52 1 6 0.172334 -0.041406 0.0177946 0.0777875 0.131675 0.0102989 0 0 0 10.5938 0.451216 -8.15632 0.01 
53 1 6 0.168158 -0.0442398 0.0252463 0.0580359 0.0867968 -0.0178379 0 0 0 10.5938 0.451216 -8.15632 0.01 
54 1 6 0.163982 -0.0470737 0.032698 0.0382844 0.0419186 -0.0459747 0.393707 -0.119863 0.388832 10.5938 0.451216 -8.15632 0.01 
55 1 6 0.159805 -0.0499075 0.0401497 0.0185329 -0.00295965 -0.0741116 0 0 0 10.5938 0.451216 -8.15632 0.01 
56 1 6 0.155629 -0.0527414 0.0476014 -0.00121862 -0.0478379 -0.102248 0 0 0 10.5938 0.451216 -8.15632 0.01 
57 1 6 0.151453 -0.0555753 0.0550531 -0.0209701 -0.0927161 -0.130385 0 0 0 10.5938 0.451216 -8.15632 0.01 
58 1 6 0.147276 -0.0584091 0.0625048 -0.0407217 -0.137594 -0.158522 0 0 0 10.5938 0.451216 -8.15632 0.01 
59 1 6 0.1431 -0.061243 0.0699565 -0.0604732 -0.182473 -0.186659 0 0 0 10.5938 0.451216 -8.15632 0.01 
60 1 6 0.138924 -0.0640768 0.0774082 -0.0802247 -0.227351 -0.214796 -0.00423527 0.00666239 0.00342519 10.5938 0.451216 -8.15632 0.01 
61 1 7 -0.0390871 0.217705 0.00993181 0.0183307 0.0380211 0.0157042 -0.00649471 -0.0165488 0.194286 -3.79105 1.89671 2.87468 0.01 
62 1 7 -0.0387394 0.217721 0.0189251 0.0353413 0.0731145 0.0149829 0 0 0 -3.79105 1.89671 2.87468 0.01 
63 1 7 -0.0383917 0.217737 0.0279183 0.052352 0.108208 0.0142615 0 0 0 -3.79105 1.89671 2.87468 0.01 
64 1 7 -0.038044 0.217753 0.0369116 0.0693626 0.143301 0.0135401 0 0 0 -3.79105 1.89671 2.87468 0.01 
65 1 7 -0.0376963 0.21777 0.0459049 0.0863732 0.178395 0.0128187 0 0 0 -3.79105 1.89671 2.87468 0.01 
66 1 7 -0.0373486 0.217786 0.0548981 0.103384 0.213488 0.0120974 0 0 0 -3.79105 1.89671 2.87468 0.01 
67 1 7 -0.037001 0.217802 0.0638914 0.120394 0.248582 0.011376 0.0248401 -0.0231816 -0.0180211 -3.79105 1.89671 2.87468 0.01 
68 1 7 -0.0366533 0.217819 0.0728847 0.137405 0.283675 0.0106546 0 0 0 -3.79105 1.89671 2.87468 0.01 
69 1 7 -0.0363056 0.217835 0.0818779 0.154416 0.318769 0.00993322 0 0 0 -3.79105 1.89671 2.87468 0.01 
70 1 7 -0.0359579 0.217851 0.0908712 0.171426 0.353862 0.00921185 0 0 0 -3.79105 1.89671 2.87468 0.01 
71 1 8 0.131314 -0.140262 0.10706 0.0593609 -0.134307 -0.00419894 -0.118595 0.0568154 0.149563 -0.943192 3.80565 -2.6442 0.01 
72 1 8 0.133682 -0.140012 0.115739 0.0930508 -0.132382 -0.013445 0 0 0 -0.943192 3.80565 -2.6442 0.01 
73 1 8 0.136049 -0.139763 0.124418 0.126741 -0.130456 -0.022691 0 0 0 -0.943192 3.80565 -2.6442 0.01 
74 1 8 0.138417 -0.139514 0.133098 0.160431 -0.128531 -0.0319371 0 0 0 -0.943192 3.80565 -2.6442 0.01 
75 1 8 0.140785 -0.139264 0.141777 0.19412 -0.126605 -0.0411831 0 0 0 -0.943192 3.80565 -2.6442 0.01 
76 1 8 0.143153 -0.139015 0.150457 0.22781 -0.12468 -0.0504292 0 0 0 -0.943192 3.80565 -2.6442 0.01 
77 1 8 0.14552 -0.138766 0.159136 0.2615 -0.122754 -0.0596753 0 0 0 -0.943192 3.80565 -2.6442 0.01 
78 1 8 0.147888 -0.138516 0.167815 0.29519 -0.120829 -0.0689213 0 0 0 -0.943192 3.80565 -2.6442 0.01 
79 1 8 0.150256 -0.138267 0.176495 0.32888 -0.118903 -0.0781674 0 0 0 -0.943192 3.80565 -2.6442 0.01 
80 1 8 0.152624 -0.138018 0.185174 0.36257 -0.116978 -0.0874134 0 0 0 -0.943192 3.80565 -2.6442 0.01 
81 1 9 -0.125322 0.0358756 0.0986596 -0.0948717 0.210597 -0.394496 0 0 0 2.48068 7.02673 0.489284 0.01 
82 1 9 -0.12055 0.0343201 0.10613 -0.0416151 0.194399 -0.431883 0 0 0 2.48068 7.02673 0.489284 0.01 
83 1 9 -0.115779 0.0327646 0.113601 0.0116414 0.1782 -0.469269 0 0 0 2.48068 7.02673 0.489284 0.01 
84 1 9 -0.111007 0.0312091 0.121072 0.0648979 0.162002 -0.506656 0 0 0 2.48068 7.02673 0.489284 0.01 
85 1 9 -0.106236 0.0296536 0.128543 0.118154 0.145804 -0.544043 0 0 0 2.48068 7.02673 0.489284 0.01 
86 1 9 -0.101464 0.028098 0.136014 0.171411 0.129606 -0.58143 0 0 0 2.48068 7.02673 0.489284 0.01 
87 1 9 -0.0966928 0.0265425 0.143485 0.224668 0.113408 -0.618817 0 0 0 2.48068 7.02673 0.489284 0.01 
88 1 9 -0.0919213 0.024987 0.150955 0.277924 0.09721 -0.656203 0.0121522 0.00789202 -0.0145087 2.48068 7.02673 0.489284 0.01 
89 1 9 -0.0871498 0.0234315 0.158426 0.331181 0.0810119 -0.69359 0 0 0 2.48068 7.02673 0.489284 0.01 
90 1 9 -0.0823783 0.021876 0.165897 0.384437 0.0648139 -0.730977 0 0 0 2.48068 7.02673 0.489284 0.01 
91 1 10 0.060466 0.203829 0.109381 -0.0621903 0.129218 -0.0278411 -0.178377 0.243711 2.25339 -5.75835 -1.78041 12.3935 0.01 
92 1 10 0.0579991 0.205128 0.117939 -0.0935226 0.147921 -0.0397121 0 0 0 -5.75835 -1.78041 12.3935 0.01 
93 1 10 0.0555322 0.206427 0.126496 -0.124855 0.166623 -0.0515832 0 0 0 -5.75835 -1.78041 12.3935 0.01 
94 1 10 0.0530653 0.207726 0.135053 -0.156187 0.185326 -0.0634542 -0.146919 -0.0178054 -0.159345 -5.75835 -1.78041 12.3935 0.01 
95 1 10 0.0505984 0.209024 0.143611 -0.187519 0.204028 -0.0753253 -0.222108 -0.0122886 -0.23946 -5.75835 -1.78041 12.3935 0.01 
96 1 10 0.0481315 0.210323 0.152168 -0.218852 0.222731 -0.0871963 0 0 0 -5.75835 -1.78041 12.3935 0.01 
97 1 10 0.0456646 0.211622 0.160725 -0.250184 0.241433 -0.0990674 0.147302 0.402259 -0.334993 -5.75835 -1.78041 12.3935 0.01 
98 1 10 0.0431977 0.212921 0.169283 -0.281516 0.260136 -0.110938 0.0142678 0.126082 -0.102013 -5.75835 -1.78041 12.3935 0.01 
99 1 10 0.0407309 0.21422 0.17784 -0.312848 0.278838 -0.122809 0 0 0 -5.75835 -1.78041 12.3935 0.01 
100 1 10 0.038264 0.215518 0.186397 -0.344181 0.29754 -0.13468 0 0 0 -5.75835 -1.78041 12.3935 0.01 
101 1 11 -0.223744 -0.0932267 0.0435524 -0.260271 0.199933 -0.707868 0 0 0 -0.51176 2.42451 -17.7285 0.01 
102 1 11 -0.221734 -0.0943955 0.052247 -0.259911 0.168758 -0.712141 0 0 0 -0.51176 2.42451 -17.7285 0.01 
103 1 11 -0.219725 -0.0955642 0.0609416 -0.259552 0.137583 -0.716415 0 0 0 -0.51176 2.42451 -17.7285 0.01 
104 1 11 -0.217715 -0.096733 0.0696362 -0.259192 0.106408 -0.720689 0 0 0 -0.51176 2.42451 -17.7285 0.01 
105 1 11 -0.215706 -0.0979018 0.0783308 -0.258832 0.0752334 -0.724963 0 0 0 -0.51176 2.42451 -17.7285 0.01 
106 1 11 -0.213697 -0.0990705 0.0870255 -0.258473 0.0440585 -0.729237 0 0 0 -0.51176 2.42451 -17.7285 0.01 
107 1 11 -0.211687 -0.100239 0.0957201 -0.258113 0.0128836 -0.73351 0 0 0 -0.51176 2.42451 -17.7285 0.01 
108 1 11 -0.209678 -0.101408 0.104415 -0.257753 -0.0182913 -0.737784 0 0 0 -0.51176 2.42451 -17.7285 0.01 
109 1 11 -0.207668 -0.102577 0.113109 -0.257394 -0.0494662 -0.742058 0 0 0 -0.51176 2.42451 -17.7285 0.01 
110 1 11 -0.205659 -0.103746 0.121804 -0.257034 -0.080641 -0.746332 0.0295726 -0.23239 0.0620339 -0.51176 2.42451 -17.7285 0.01 
111 1 12 0.101049 0.0535244 0.0915086 0.224343 -0.0257388 -0.532752 -0.0435319 -0.0413186 0.0162157 -4.36799 -4.8263 -6.71534 0.01 
112 1 12 0.103072 0.0555511 0.100041 0.196773 -0.00205581 -0.53184 0 0 0 -4.36799 -4.8263 -6.71534 0.01 
113 1 12 0.105095 0.0575777 0.108573 0.169203 0.0216271 -0.530928 0 0 0 -4.36799 -4.8263 -6.71534 0.01 
114 1 12 0.107118 0.0596043 0.117105 0.141633 0.0453101 -0.530016 0 0 0 -4.36799 -4.8263 -6.71534 0.01 
115 1 12 0.109141 0.0616309 0.125638 0.114063 0.0689931 -0.529104 0 0 0 -4.36799 -4.8263 -6.71534 0.01 
116 1 12 0.111164 0.0636575 0.13417 0.0864932 0.092676 -0.528192 0 0 0 -4.36799 -4.8263 -6.71534 0.01 
117 1 12 0.113187 0.0656841 0.142702 0.0589232 0.116359 -0.52728 -0.726531 0.265515 0.411657 -4.36799 -4.8263 -6.71534 0.01 
118 1 12 0.11521 0.0677107 0.151235 0.0313533 0.140042 -0.526368 0 0 0 -4.36799 -4.8263 -6.71534 0.01 
119 1 12 0.117234 0.0697373 0.159767 0.00378333 0.163725 -0.525456 0 0 0 -4.36799 -4.8263 -6.71534 0.01 
120 1 12 0.119257 0.0717639 0.168299 -0.0237866 0.187408 -0.524544 0 0 0 -4.36799 -4.8263 -6.71534 0.01 
121 1 13 -0.00938312 0.238122 0.0974926 0.0771374 0.210509 -0.339532 0 0 0 -2.25959 -10.7806 11.308 0.01 
122 1 13 -0.0125642 0.234172 0.104927 0.0416624 0.191337 -0.364899 0 0 0 -2.25959 -10.7806 11.308 0.01 
123 1 13 -0.0157453 0.230221 0.112362 0.00618749 0.172164 -0.390266 0 0 0 -2.25959 -10.7806 11.308 0.01 
124 1 13 -0.0189264 0.22627 0.119796 -0.0292875 0.152992 -0.415633 0 0 0 -2.25959 -10.7806 11.308 0.01 
125 1 13 -0.0221075 0.22232 0.127231 -0.0647624 0.133819 -0.441 0 0 0 -2.25959 -10.7806 11.308 0.01 
126 1 13 -0.0252885 0.218369 0.134666 -0.100237 0.114647 -0.466367 0 0 0 -2.25959 -10.7806 11.308 0.01 
127 1 13 -0.0284696 0.214418 0.1421 -0.135712 0.0954741 -0.491734 0 0 0 -2.25959 -10.7806 11.308 0.01 
128 1 13 -0.0316507 0.210468 0.149535 -0.171187 0.0763016 -0.517101 0 0 0 -2.25959 -10.7806 11.308 0.01 
129 1 13 -0.0348318 0.206517 0.156969 -0.206662 0.0571291 -0.542468 0 0 0 -2.25959 -10.7806 11.308 0.01 
130 1 13 -0.0380129 0.202566 0.164404 -0.242137 0.0379566 -0.567835 0.184055 1.33227 0.781621 -2.25959 -10.7806 11.308 0.01 
131 1 14 -0.04637 0.122607 0.00966719 -0.0243677 0.0640908 0.0297025 0.991459 1.08118 4.30027 -5.6098 -2.36974 -13.1417 0.01 
132 1 14 -0.0446002 0.124943 0.0181766 -0.0138301 0.0885677 0.0207906 0 0 0 -5.6098 -2.36974 -13.1417 0.01 
133 1 14 -0.0428303 0.127279 0.0266859 -0.00329258 0.113045 0.0118787 0 0 0 -5.6098 -2.36974 -13.1417 0.01 
134 1 14 -0.0410605 0.129616 0.0351953 0.00724496 0.137522 0.00296685 0 0 0 -5.6098 -2.36974 -13.1417 0.01 
135 1 14 -0.0392906 0.131952 0.0437047 0.0177825 0.161999 -0.00594503 0 0 0 -5.6098 -2.36974 -13.1417 0.01 
136 1 14 -0.0375208 0.134288 0.0522141 0.0283201 0.186475 -0.0148569 0 0 0 -5.6098 -2.36974 -13.1417 0.01 
137 1 14 -0.0357509 0.136625 0.0607234 0.0388576 0.210952 -0.0237688 0 0 0 -5.6098 -2.36974 -13.1417 0.01 
138 1 14 -0.033981 0.138961 0.0692328 0.0493952 0.235429 -0.0326806 0 0 0 -5.6098 -2.36974 -13.1417 0.01 
139 1 14 -0.0322112 0.141297 0.0777422 0.0599327 0.259906 -0.0415925 0 0 0 -5.6098 -2.36974 -13.1417 0.01 
140 1 14 -0.0304413 0.143633 0.0862516 0.0704703 0.284383 -0.0505044 -0.286861 -0.87357 -3.54049 -5.6098 -2.36974 -13.1417 0.01 
141 1 15 -0.00566735 -0.0648099 0.009555 -0.0390187 -0.0205446 0.0981383 -2.00247 -0.463555 5.10053 1.17224 -4.143 -4.5923 0.01 
142 1 15 -0.00809286 -0.0655305 0.018192 -0.078111 -0.0195306 0.0872447 0 0 0 1.17224 -4.143 -4.5923 0.01 
143 1 15 -0.0105184 -0.0662511 0.026829 -0.117203 -0.0185166 0.0763511 0 0 0 1.17224 -4.143 -4.5923 0.01 
144 1 15 -0.0129439 -0.0669717 0.035466 -0.156296 -0.0175026 0.0654575 0 0 0 1.17224 -4.143 -4.5923 0.01 
145 1 15 -0.0153694 -0.0676923 0.044103 -0.195388 -0.0164887 0.0545639 1.98883 1.05102 0.220554 1.17224 -4.143 -4.5923 0.01 
146 1 15 -0.0177949 -0.0684129 0.05274 -0.23448 -0.0154747 0.0436703 0 0 0 1.17224 -4.143 -4.5923 0.01 
147 1 15 -0.0202204 -0.0691335 0.061377 -0.273572 -0.0144607 0.0327767 0 0 0 1.17224 -4.143 -4.5923 0.01 
148 1 15 -0.0226459 -0.0698541 0.0700139 -0.312665 -0.0134467 0.0218831 0 0 0 1.17224 -4.143 -4.5923 0.01 
149 1 15 -0.0250714 -0.0705747 0.0786509 -0.351757 -0.0124327 0.0109895 0 0 0 1.17224 -4.143 -4.5923 0.01 
150 1 15 -0.0274969 -0.0712954 0.0872879 -0.390849 -0.0114187 9.59207e-05 0 0 0 1.17224 -4.143 -4.5923 0.01 
151 1 16 -0.0383339 0.176946 0.0101076 0.0163639 0.0447824 0.0308576 0 0 0 -4.01671 1.10925 -2.94895 0.01 
152 1 16 -0.0373866 0.179402 0.0187138 0.0331544 0.0765578 0.0199398 0 0 0 -4.01671 1.10925 -2.94895 0.01 
153 1 16 -0.0364393 0.181859 0.0273201 0.049945 0.108333 0.00902198 0 0 0 -4.01671 1.10925 -2.94895 0.01 
154 1 16 -0.035492 0.184315 0.0359264 0.0667356 0.140109 -0.00189583 0.00999616 -0.00683056 -0.00583843 -4.01671 1.10925 -2.94895 0.01 
155 1 16 -0.0345447 0.186772 0.0445327 0.0835262 0.171884 -0.0128136 0.00511838 -0.00358216 -0.00308 -4.01671 1.10925 -2.94895 0.01 
156 1 16 -0.0335973 0.189228 0.053139 0.100317 0.203659 -0.0237315 4.08616e-05 -2.9362e-05 -2.53181e-05 -4.01671 1.10925 -2.94895 0.01 
157 1 16 -0.03265 0.191685 0.0617453 0.117107 0.235435 -0.0346493 -0.00280922 0.00315349 -0.00194745 -4.01671 1.10925 -2.94895 0.01 
158 1 16 -0.0317027 0.194141 0.0703516 0.133898 0.26721 -0.0455671 -0.00396875 0.00419154 -0.002675 -4.01671 1.10925 -2.94895 0.01 
159 1 16 -0.0307554 0.196598 0.0789579 0.150688 0.298986 -0.0564849 -0.00343393 0.00340502 -0.00224666 -4.01671 1.10925 -2.94895 0.01 
160 1 16 -0.0298081 0.199054 0.0875642 0.167479 0.330761 -0.0674027 -0.0167239 -0.00887417 0.0200387 -4.01671 1.10925 -2.94895 0.01 
161 1 17 0.0736768 0.0919921 0.00987432 0.012938 -0.0182065 -0.00110277 0.126452 -0.4008 1.20069 2.10187 1.76672 2.5558 0.01 
162 1 17 0.0751577 0.0905447 0.0186329 0.032111 -0.032831 -0.00676124 0 0 0 2.10187 1.76672 2.5558 0.01 
163 1 17 0.0766386 0.0890974 0.0273914 0.051284 -0.0474554 -0.0124197 0 0 0 2.10187 1.76672 2.5558 0.01 
164 1 17 0.0781196 0.0876501 0.03615 0.0704571 -0.0620798 -0.0180782 0 0 0 2.10187 1.76672 2.5558 0.01 
165 1 17 0.0796005 0.0862027 0.0449085 0.0896301 -0.0767042 -0.0237367 0 0 0 2.10187 1.76672 2.5558 0.01 
166 1 17 0.0810814 0.0847554 0.053667 0.108803 -0.0913286 -0.0293951 0 0 0 2.10187 1.76672 2.5558 0.01 
167 1 17 0.0825623 0.0833081 0.0624256 0.127976 -0.105953 -0.0350536 0 0 0 2.10187 1.76672 2.5558 0.01 
168 1 17 0.0840432 0.0818608 0.0711841 0.147149 -0.120577 -0.0407121 0 0 0 2.10187 1.76672 2.5558 0.01 
169 1 17 0.0855241 0.0804134 0.0799427 0.166322 -0.135202 -0.0463705 0.0643248 -0.40516 -0.376824 2.10187 1.76672 2.5558 0.01 
170 1 17 0.0870051 0.0789661 0.0887012 0.185495 -0.149826 -0.052029 -0.0352034 0.0159259 -0.00411093 2.10187 1.76672 2.5558 0.01 
171 1 18 -0.278086 -0.0447439 0.0686494 -0.488047 0.00712818 -0.302288 0 0 0 1.79194 2.46722 3.52845 0.01 
172 1 18 -0.273805 -0.0429866 0.0763681 -0.475204 0.0084042 -0.309703 0 0 0 1.79194 2.46722 3.52845 0.01 
173 1 18 -0.269523 -0.0412294 0.0840869 -0.46236 0.00968021 -0.317118 0 0 0 1.79194 2.46722 3.52845 0.01 
174 1 18 -0.265241 -0.0394721 0.0918057 -0.449517 0.0109562 -0.324533 0 0 0 1.79194 2.46722 3.52845 0.01 
175 1 18 -0.26096 -0.0377148 0.0995244 -0.436673 0.0122322 -0.331947 0 0 0 1.79194 2.46722 3.52845 0.01 
176 1 18 -0.256678 -0.0359575 0.107243 -0.42383 0.0135083 -0.339362 0 0 0 1.79194 2.46722 3.52845 0.01 
177 1 18 -0.252396 -0.0342002 0.114962 -0.410987 0.0147843 -0.346777 0 0 0 1.79194 2.46722 3.52845 0.01 
178 1 18 -0.248115 -0.0324429 0.122681 -0.398143 0.0160603 -0.354192 0 0 0 1.79194 2.46722 3.52845 0.01 
179 1 18 -0.243833 -0.0306856 0.130399 -0.3853 0.0173363 -0.361607 0 0 0 1.79194 2.46722 3.52845 0.01 
180 1 18 -0.239551 -0.0289284 0.138118 -0.372457 0.0186123 -0.369022 0 0 0 1.79194 2.46722 3.52845 0.01 
181 1 19 0.0150413 0.180291 0.105031 0.160519 0.290877 -0.189905 0.682817 0.864805 3.70671 5.31983 -4.71574 3.97942 0.01 
182 1 19 0.0139156 0.177225 0.113417 0.13317 0.241783 -0.211523 0 0 0 5.31983 -4.71574 3.97942 0.01 
183 1 19 0.01279 0.174159 0.121804 0.105822 0.192689 -0.233142 0 0 0 5.31983 -4.71574 3.97942 0.01 
184 1 19 0.0116643 0.171093 0.13019 0.0784741 0.143595 -0.25476 0 0 0 5.31983 -4.71574 3.97942 0.01 
185 1 19 0.0105387 0.168027 0.138577 0.051126 0.0945007 -0.276378 0 0 0 5.31983 -4.71574 3.97942 0.01 
186 1 19 0.00941305 0.164961 0.146963 0.0237779 0.0454065 -0.297996 0 0 0 5.31983 -4.71574 3.97942 0.01 
187 1 19 0.00828741 0.161896 0.15535 -0.00357026 -0.00368763 -0.319614 0 0 0 5.31983 -4.71574 3.97942 0.01 
188 1 19 0.00716176 0.15883 0.163736 -0.0309184 -0.0527818 -0.341233 0 0 0 5.31983 -4.71574 3.97942 0.01 
189 1 19 0.00603612 0.155764 0.172123 -0.0582665 -0.101876 -0.362851 0 0 0 5.31983 -4.71574 3.97942 0.01 
190 1 19 0.00491048 0.152698 0.180509 -0.0856147 -0.15097 -0.384469 0 0 0 5.31983 -4.71574 3.97942 0.01 
191 1 20 -0.00556049 0.190156 0.00990445 0.00675643 0.0491253 0.00751942 0.157322 -0.0204623 0.686138 -4.0596 2.95787 2.03844 0.01 
192 1 20 -0.00450389 0.193204 0.0183067 0.0253979 0.0853891 -0.00797614 -0.708771 0.180992 0.557328 -4.0596 2.95787 2.03844 0.01 
193 1 20 -0.00344729 0.196251 0.026709 0.0440393 0.121653 -0.0234717 0 0 0 -4.0596 2.95787 2.03844 0.01 
194 1 20 -0.00239068 0.199298 0.0351113 0.0626807 0.157917 -0.0389673 0 0 0 -4.0596 2.95787 2.03844 0.01 
195 1 20 -0.00133408 0.202345 0.0435136 0.0813221 0.19418 -0.0544628 0 0 0 -4.0596 2.95787 2.03844 0.01 
196 1 20 -0.000277484 0.205392 0.0519159 0.0999635 0.230444 -0.0699584 0 0 0 -4.0596 2.95787 2.03844 0.01 
197 1 20 0.000779117 0.208439 0.0603182 0.118605 0.266708 -0.085454 0 0 0 -4.0596 2.95787 2.03844 0.01 
198 1 20 0.00183572 0.211487 0.0687204 0.137246 0.302971 -0.10095 0 0 0 -4.0596 2.95787 2.03844 0.01 
199 1 20 0.00289232 0.214534 0.0771227 0.155888 0.339235 -0.116445 0 0 0 -4.0596 2.95787 2.03844 0.01 
200 1 20 0.00394892 0.217581 0.085525 0.174529 0.375499 -0.131941 -0.0510068 -0.329081 -0.213163 -4.0596 2.95787 2.03844 0.01 
201 1 21 0.0181167 0.00629232 0.0101806 -0.0332103 0.000527765 0.047853 0 0 0 -3.56274 -1.42082 -1.64431 0.01 
202 1 21 0.0172705 0.00978519 0.0184319 -0.0391904 0.0313164 0.0342064 -0.00710282 -0.0946132 0.119552 -3.56274 -1.42082 -1.64431 0.01 
203 1 21 0.0164242 0.0132781 0.0266831 -0.0451706 0.0621051 0.0205599 0.0276046 -0.0536376 0.0511864 -3.56274 -1.42082 -1.64431 0.01 
204 1 21 0.015578 0.0167709 0.0349344 -0.0511508 0.0928938 0.00691332 0.00682307 -0.0119959 0.00857556 -3.56274 -1.42082 -1.64431 0.01 
205 1 21 0.0147317 0.0202638 0.0431857 -0.057131 0.123682 -0.00673322 0 0 0 -3.56274 -1.42082 -1.64431 0.01 
206 1 21 0.0138855 0.0237567 0.051437 -0.0631112 0.154471 -0.0203798 0 0 0 -3.56274 -1.42082 -1.64431 0.01 
207 1 21 0.0130392 0.0272495 0.0596883 -0.0690913 0.18526 -0.0340263 0 0 0 -3.56274 -1.42082 -1.64431 0.01 
208 1 21 0.012193 0.0307424 0.0679396 -0.0750715 0.216048 -0.0476729 0 0 0 -3.56274 -1.42082 -1.64431 0.01 
209 1 21 0.0113467 0.0342353 0.0761909 -0.0810517 0.246837 -0.0613194 0 0 0 -3.56274 -1.42082 -1.64431 0.01 
210 1 21 0.0105005 0.0377282 0.0844421 -0.0870319 0.277626 -0.074966 0 0 0 -3.56274 -1.42082 -1.64431 0.01 
211 1 22 0.00955304 0.229159 0.100738 0.160326 0.367311 -0.116058 0.119253 0.361237 0.168442 5.08476 -3.71572 1.11585 0.01 
212 1 22 0.00744723 0.223771 0.107632 0.140722 0.329906 -0.151282 0 0 0 5.08476 -3.71572 1.11585 0.01 
213 1 22 0.00534141 0.218382 0.114526 0.121118 0.292501 -0.186505 0 0 0 5.08476 -3.71572 1.11585 0.01 
214 1 22 0.0032356 0.212994 0.12142 0.101514 0.255096 -0.221729 0 0 0 5.08476 -3.71572 1.11585 0.01 
215 1 22 0.00112979 0.207605 0.128314 0.0819101 0.217691 -0.256953 0 0 0 5.08476 -3.71572 1.11585 0.01 
216 1 22 -0.000976027 0.202217 0.135208 0.062306 0.180286 -0.292177 0 0 0 5.08476 -3.71572 1.11585 0.01 
217 1 22 -0.00308184 0.196828 0.142103 0.0427019 0.142881 -0.3274 0 0 0 5.08476 -3.71572 1.11585 0.01 
218 1 22 -0.00518765 0.19144 0.148997 0.0230978 0.105476 -0.362624 0 0 0 5.08476 -3.71572 1.11585 0.01 
219 1 22 -0.00729347 0.186051 0.155891 0.00349373 0.0680708 -0.397848 0 0 0 5.08476 -3.71572 1.11585 0.01 
220 1 22 -0.00939928 0.180663 0.162785 -0.0161104 0.0306657 -0.433071 -0.0004979 0.0118558 0.032062 5.08476 -3.71572 1.11585 0.01 
221 1 23 0.216482 0.0512056 0.109612 0.313014 -0.0146484 -0.00811849 0 0 0 -3.66736 -6.69418 -3.16153 0.01 
222 1 23 0.215206 0.0542808 0.117973 0.266763 0.0200495 -0.0279357 0 0 0 -3.66736 -6.69418 -3.16153 0.01 
223 1 23 0.21393 0.057356 0.126335 0.220511 0.0547475 -0.047753 0 0 0 -3.66736 -6.69418 -3.16153 0.01 
224 1 23 0.212655 0.0604312 0.134696 0.174259 0.0894455 -0.0675702 0 0 0 -3.66736 -6.69418 -3.16153 0.01 
225 1 23 0.211379 0.0635063 0.143058 0.128007 0.124143 -0.0873875 0 0 0 -3.66736 -6.69418 -3.16153 0.01 
226 1 23 0.210103 0.0665815 0.15142 0.0817557 0.158841 -0.107205 0 0 0 -3.66736 -6.69418 -3.16153 0.01 
227 1 23 0.208828 0.0696567 0.159781 0.035504 0.193539 -0.127022 0 0 0 -3.66736 -6.69418 -3.16153 0.01 
228 1 23 0.207552 0.0727318 0.168143 -0.0107476 0.228237 -0.146839 0 0 0 -3.66736 -6.69418 -3.16153 0.01 
229 1 23 0.206276 0.075807 0.176504 -0.0569993 0.262935 -0.166656 0 0 0 -3.66736 -6.69418 -3.16153 0.01 
230 1 23 0.205001 0.0788822 0.184866 -0.103251 0.297633 -0.186474 0 0 0 -3.66736 -6.69418 -3.16153 0.01 
231 1 24 0.159158 0.02117 0.00991725 0.0235787 -0.0315569 0.00445179 0.155374 -0.109222 0.547127 3.27695 2.43352 14.7984 0.01 
232 1 24 0.162914 0.0198618 0.0179909 0.0625854 -0.00243618 -0.00897459 0 0 0 3.27695 2.43352 14.7984 0.01 
233 1 24 0.166669 0.0185536 0.0260645 0.101592 0.0266845 -0.022401 0 0 0 3.27695 2.43352 14.7984 0.01 
234 1 24 0.170425 0.0172454 0.0341382 0.140599 0.0558052 -0.0358274 0 0 0 3.27695 2.43352 14.7984 0.01 
235 1 24 0.174181 0.0159372 0.0422118 0.179606 0.0849259 -0.0492537 0 0 0 3.27695 2.43352 14.7984 0.01 
236 1 24 0.177936 0.014629 0.0502855 0.218613 0.114047 -0.0626801 0 0 0 3.27695 2.43352 14.7984 0.01 
237 1 24 0.181692 0.0133208 0.0583591 0.257619 0.143167 -0.0761065 0 0 0 3.27695 2.43352 14.7984 0.01 
238 1 24 0.185448 0.0120126 0.0664328 0.296626 0.172288 -0.0895329 0 0 0 3.27695 2.43352 14.7984 0.01 
239 1 24 0.189203 0.0107044 0.0745064 0.335633 0.201409 -0.102959 0 0 0 3.27695 2.43352 14.7984 0.01 
240 1 24 0.192959 0.0093962 0.08258 0.37464 0.230529 -0.116386 0 0 0 3.27695 2.43352 14.7984 0.01 
241 1 25 0.136097 -0.182954 0.109683 0.0466972 -0.2213 -0.0798276 0 0 0 -5.86988 1.26941 5.35715 0.01 
242 1 25 0.136581 -0.180455 0.118316 0.0442657 -0.16804 -0.095112 0 0 0 -5.86988 1.26941 5.35715 0.01 
243 1 25 0.137064 -0.177955 0.126948 0.0418342 -0.11478 -0.110396 0 0 0 -5.86988 1.26941 5.35715 0.01 
244 1 25 0.137547 -0.175456 0.135581 0.0394027 -0.0615201 -0.125681 0 0 0 -5.86988 1.26941 5.35715 0.01 
245 1 25 0.13803 -0.172956 0.144213 0.0369712 -0.0082601 -0.140965 0 0 0 -5.86988 1.26941 5.35715 0.01 
246 1 25 0.138513 -0.170457 0.152846 0.0345397 0.0449999 -0.15625 0 0 0 -5.86988 1.26941 5.35715 0.01 
247 1 25 0.138996 -0.167958 0.161478 0.0321083 0.09826 -0.171534 0 0 0 -5.86988 1.26941 5.35715 0.01 
248 1 25 0.13948 -0.165458 0.170111 0.0296768 0.15152 -0.186819 0 0 0 -5.86988 1.26941 5.35715 0.01 
249 1 25 0.139963 -0.162959 0.178743 0.0272453 0.20478 -0.202103 0 0 0 -5.86988 1.26941 5.35715 0.01 
250 1 25 0.140446 -0.160459 0.187376 0.0248138 0.25804 -0.217388 0 0 0 -5.86988 1.26941 5.35715 0.01 
251 1 26 -0.00660271 -0.172422 0.00986158 -0.00526091 -0.069361 -0.00320971 -0.238225 1.24243 1.42769 3.24393 -0.387848 -0.327476 0.01 
252 1 26 -0.00526972 -0.174996 0.0183819 -0.00940852 -0.0974369 -0.0110436 0 0 0 3.24393 -0.387848 -0.327476 0.01 
253 1 26 -0.00393673 -0.17757 0.0269022 -0.0135561 -0.125513 -0.0188775 0 0 0 3.24393 -0.387848 -0.327476 0.01 
254 1 26 -0.00260374 -0.180145 0.0354226 -0.0177038 -0.153589 -0.0267115 0.174699 -0.348633 -0.430816 3.24393 -0.387848 -0.327476 0.01 
255 1 26 -0.00127075 -0.182719 0.0439429 -0.0218514 -0.181665 -0.0345454 0.327243 -0.851569 -1.32779 3.24393 -0.387848 -0.327476 0.01 
256 1 26 6.22443e-05 -0.185293 0.0524632 -0.025999 -0.20974 -0.0423793 -0.0105779 -0.31639 -0.49134 3.24393 -0.387848 -0.327476 0.01 
257 1 26 0.00139523 -0.187868 0.0609836 -0.0301466 -0.237816 -0.0502132 0 0 0 3.24393 -0.387848 -0.327476 0.01 
258 1 26 0.00272823 -0.190442 0.0695039 -0.0342942 -0.265892 -0.0580471 0 0 0 3.24393 -0.387848 -0.327476 0.01 
259 1 26 0.00406122 -0.193016 0.0780242 -0.0384419 -0.293968 -0.065881 0 0 0 3.24393 -0.387848 -0.327476 0.01 
260 1 26 0.00539421 -0.195591 0.0865446 -0.0425895 -0.322044 -0.0737149 -0.602084 1.70719 1.62759 3.24393 -0.387848 -0.327476 0.01 
261 1 27 -0.120865 0.192277 0.110083 -0.222715 0.303146 -0.286076 0 0 0 0.470433 -12.829 13.9935 0.01 
262 1 27 -0.123634 0.185764 0.115643 -0.202891 0.261793 -0.324654 0.104383 -0.050184 -0.0905191 0.470433 -12.829 13.9935 0.01 
263 1 27 -0.126402 0.17925 0.121203 -0.183066 0.220439 -0.363233 1.01421 -0.781409 -0.990175 0.470433 -12.829 13.9935 0.01 
264 1 27 -0.12917 0.172736 0.126762 -0.163241 0.179086 -0.401811 -2.97885 1.05785 2.40547 0.470433 -12.829 13.9935 0.01 
265 1 27 -0.131938 0.166223 0.132322 -0.143417 0.137733 -0.440389 0 0 0 0.470433 -12.829 13.9935 0.01 
266 1 27 -0.134707 0.159709 0.137881 -0.123592 0.0963802 -0.478967 0 0 0 0.470433 -12.829 13.9935 0.01 