ITEM: TIMESTEP
28000
ITEM: NUMBER OF ATOMS
6300
ITEM: BOX BOUNDS mm mm mm
-0.357917 0.348242
-0.327486 0.372163
0 0.5
ITEM: ATOMS id type mol x y z vx vy vz fx fy fz omegax omegay omegaz radius 
1 1 1 -0.125719 -0.112772 0.0867052 -0.187376 0.0275285 -0.0126342 -0.0855886 -0.380772 0.561962 5.11481 1.5392 -1.93868 0.01 
2 1 1 -0.125797 -0.116384 0.0949483 -0.181691 -0.0144817 -0.0309879 -0.00768094 0.216557 0.184265 5.11481 1.5392 -1.93868 0.01 
3 1 1 -0.125875 -0.119995 0.103191 -0.176005 -0.056492 -0.0493415 0 0 0 5.11481 1.5392 -1.93868 0.01 
4 1 1 -0.125953 -0.123607 0.111434 -0.17032 -0.0985023 -0.0676952 0 0 0 5.11481 1.5392 -1.93868 0.01 
5 1 1 -0.126031 -0.127219 0.119678 -0.164634 -0.140513 -0.0860488 0 0 0 5.11481 1.5392 -1.93868 0.01 
6 1 1 -0.126109 -0.130831 0.127921 -0.158949 -0.182523 -0.104402 0 0 0 5.11481 1.5392 -1.93868 0.01 
7 1 1 -0.126188 -0.134443 0.136164 -0.153263 -0.224533 -0.122756 0 0 0 5.11481 1.5392 -1.93868 0.01 
8 1 1 -0.126266 -0.138055 0.144407 -0.147578 -0.266543 -0.14111 0 0 0 5.11481 1.5392 -1.93868 0.01 
9 1 1 -0.126344 -0.141667 0.15265 -0.141892 -0.308554 -0.159463 -0.149436 0.198712 0.165867 5.11481 1.5392 -1.93868 0.01 
10 1 1 -0.126422 -0.145278 0.160893 -0.136207 -0.350564 -0.177817 0 0 0 5.11481 1.5392 -1.93868 0.01 
11 1 2 -0.0214277 -0.12161 0.0362829 0.0212057 -0.0969561 -0.132545 -0.321426 -0.0573549 0.606528 3.1536 -0.327644 -3.73895 0.01 
12 1 2 -0.0237181 -0.122115 0.0449719 0.0164682 -0.115794 -0.13489 0 0 0 3.1536 -0.327644 -3.73895 0.01 
13 1 2 -0.0260085 -0.122621 0.0536609 0.0117307 -0.134632 -0.137235 0 0 0 3.1536 -0.327644 -3.73895 0.01 
14 1 2 -0.0282989 -0.123127 0.0623498 0.00699312 -0.15347 -0.13958 0 0 0 3.1536 -0.327644 -3.73895 0.01 
15 1 2 -0.0305893 -0.123632 0.0710388 0.00225558 -0.172307 -0.141925 -0.0627857 -0.0333575 -0.0610739 3.1536 -0.327644 -3.73895 0.01 
16 1 2 -0.0328798 -0.124138 0.0797278 -0.00248196 -0.191145 -0.144271 0.488291 -0.450217 0.275144 3.1536 -0.327644 -3.73895 0.01 
17 1 2 -0.0351702 -0.124644 0.0884168 -0.0072195 -0.209983 -0.146616 0 0 0 3.1536 -0.327644 -3.73895 0.01 
18 1 2 -0.0374606 -0.125149 0.0971057 -0.011957 -0.228821 -0.148961 0 0 0 3.1536 -0.327644 -3.73895 0.01 
19 1 2 -0.039751 -0.125655 0.105795 -0.0166946 -0.247659 -0.151306 0.0685066 -0.0571039 -0.0380564 3.1536 -0.327644 -3.73895 0.01 
20 1 2 -0.0420415 -0.126161 0.114484 -0.0214321 -0.266496 -0.153651 -0.0293774 0.895854 -0.249368 3.1536 -0.327644 -3.73895 0.01 
21 1 3 -0.0296147 -0.0363382 0.00996861 -0.0832101 -0.0554021 0.00956062 0.00425052 0.000481775 0.00855546 4.07137 4.79422 -6.3818 0.01 
22 1 3 -0.0324624 -0.0414371 0.0168163 -0.0829211 -0.0651084 0.00245332 0 0 0 4.07137 4.79422 -6.3818 0.01 
23 1 3 -0.0353101 -0.0465361 0.0236641 -0.082632 -0.0748147 -0.00465397 0 0 0 4.07137 4.79422 -6.3818 0.01 
24 1 3 -0.0381577 -0.051635 0.0305118 -0.0823429 -0.084521 -0.0117613 0 0 0 4.07137 4.79422 -6.3818 0.01 
25 1 3 -0.0410054 -0.056734 0.0373595 -0.0820539 -0.0942274 -0.0188686 0 0 0 4.07137 4.79422 -6.3818 0.01 
26 1 3 -0.0438531 -0.0618329 0.0442073 -0.0817648 -0.103934 -0.0259759 0 0 0 4.07137 4.79422 -6.3818 0.01 
27 1 3 -0.0467008 -0.0669319 0.051055 -0.0814758 -0.11364 -0.0330831 0 0 0 4.07137 4.79422 -6.3818 0.01 
28 1 3 -0.0495485 -0.0720308 0.0579027 -0.0811867 -0.123346 -0.0401904 0 0 0 4.07137 4.79422 -6.3818 0.01 
29 1 3 -0.0523961 -0.0771298 0.0647505 -0.0808976 -0.133053 -0.0472977 -1.76755 1.57717 0.57648 4.07137 4.79422 -6.3818 0.01 
30 1 3 -0.0552438 -0.0822287 0.0715982 -0.0806086 -0.142759 -0.054405 1.01742 -1.50519 -0.163422 4.07137 4.79422 -6.3818 0.01 
31 1 4 -0.0898659 0.114971 0.00988541 -0.0462504 0.0664309 -0.000233375 -0.089617 0.1901 1.03055 -5.44847 -4.31125 -2.39202 0.01 
32 1 4 -0.0913195 0.119494 0.0175293 -0.0683859 0.111555 -0.0311439 0 0 0 -5.44847 -4.31125 -2.39202 0.01 
33 1 4 -0.0927731 0.124017 0.0251732 -0.0905213 0.15668 -0.0620545 0 0 0 -5.44847 -4.31125 -2.39202 0.01 
34 1 4 -0.0942267 0.12854 0.0328171 -0.112657 0.201804 -0.092965 0 0 0 -5.44847 -4.31125 -2.39202 0.01 
35 1 4 -0.0956803 0.133063 0.0404609 -0.134792 0.246929 -0.123876 0 0 0 -5.44847 -4.31125 -2.39202 0.01 
36 1 4 -0.0971339 0.137586 0.0481048 -0.156928 0.292053 -0.154786 0 0 0 -5.44847 -4.31125 -2.39202 0.01 
37 1 4 -0.0985875 0.142109 0.0557487 -0.179063 0.337178 -0.185697 0 0 0 -5.44847 -4.31125 -2.39202 0.01 
38 1 4 -0.100041 0.146632 0.0633926 -0.201199 0.382302 -0.216607 0 0 0 -5.44847 -4.31125 -2.39202 0.01 
39 1 4 -0.101495 0.151155 0.0710365 -0.223334 0.427427 -0.247518 0.00875343 0.230146 -0.212346 -5.44847 -4.31125 -2.39202 0.01 
40 1 4 -0.102948 0.155678 0.0786804 -0.245469 0.472551 -0.278428 0.151813 -0.545306 0.509576 -5.44847 -4.31125 -2.39202 0.01 
41 1 5 0.0790703 -0.135266 0.00972813 0.00589865 -0.00714875 0.0131219 -1.16552 -0.0613678 3.3899 1.01992 0.400436 1.17168 0.01 
42 1 5 0.0796623 -0.134242 0.0186502 0.00827262 -0.0155549 0.0139283 0 0 0 1.01992 0.400436 1.17168 0.01 
43 1 5 0.0802543 -0.133219 0.0275722 0.0106466 -0.023961 0.0147347 1.8764 0.526382 -1.28451 1.01992 0.400436 1.17168 0.01 
44 1 5 0.0808462 -0.132196 0.0364943 0.0130206 -0.0323671 0.0155412 0 0 0 1.01992 0.400436 1.17168 0.01 
45 1 5 0.0814382 -0.131173 0.0454163 0.0153945 -0.0407733 0.0163476 0 0 0 1.01992 0.400436 1.17168 0.01 
46 1 5 0.0820302 -0.13015 0.0543383 0.0177685 -0.0491794 0.017154 0 0 0 1.01992 0.400436 1.17168 0.01 
47 1 5 0.0826222 -0.129127 0.0632604 0.0201425 -0.0575855 0.0179604 0 0 0 1.01992 0.400436 1.17168 0.01 
48 1 5 0.0832142 -0.128104 0.0721824 0.0225164 -0.0659917 0.0187668 0 0 0 1.01992 0.400436 1.17168 0.01 
49 1 5 0.0838062 -0.127081 0.0811045 0.0248904 -0.0743978 0.0195732 0 0 0 1.01992 0.400436 1.17168 0.01 
50 1 5 0.0843982 -0.126058 0.0900265 0.0272644 -0.0828039 0.0203796 -0.321716 -0.142869 -1.08435 1.01992 0.400436 1.17168 0.01 
51 1 6 0.184631 -0.0310199 0.0118073 0.154571 0.11983 0.0122156 0 0 0 17.1997 5.7727 -10.4885 0.01 
52 1 6 0.178945 -0.0356761 0.017002 0.135723 0.0901254 -0.0350423 0 0 0 17.1997 5.7727 -10.4885 0.01 
53 1 6 0.173258 -0.0403322 0.0221966 0.116874 0.0604212 -0.0823002 0 0 0 17.1997 5.7727 -10.4885 0.01 
54 1 6 0.167572 -0.0449883 0.0273913 0.0980249 0.030717 -0.129558 0 0 0 17.1997 5.7727 -10.4885 0.01 
55 1 6 0.161885 -0.0496445 0.032586 0.079176 0.00101277 -0.176816 -0.420795 -0.41363 1.8549 17.1997 5.7727 -10.4885 0.01 
56 1 6 0.156199 -0.0543006 0.0377807 0.0603272 -0.0286915 -0.224074 -0.198096 -0.0839112 0.781977 17.1997 5.7727 -10.4885 0.01 
57 1 6 0.150512 -0.0589568 0.0429754 0.0414784 -0.0583957 -0.271332 0.0137533 0.00566662 0.0145691 17.1997 5.7727 -10.4885 0.01 
58 1 6 0.144826 -0.0636129 0.0481701 0.0226296 -0.0880999 -0.31859 0 0 0 17.1997 5.7727 -10.4885 0.01 
59 1 6 0.13914 -0.068269 0.0533647 0.00378074 -0.117804 -0.365847 -0.0117521 -0.0429786 -0.0200701 17.1997 5.7727 -10.4885 0.01 
60 1 6 0.133453 -0.0729252 0.0585594 -0.0150681 -0.147508 -0.413105 0 0 0 17.1997 5.7727 -10.4885 0.01 
61 1 7 -0.0382865 0.220413 0.009766 0.0271324 0.044435 0.00456742 0.729452 0.363159 2.88331 -4.76337 1.8138 3.36717 0.01 
62 1 7 -0.0371065 0.222834 0.0183536 0.0345573 0.0893145 -0.00910419 0 0 0 -4.76337 1.8138 3.36717 0.01 
63 1 7 -0.0359264 0.225255 0.0269412 0.0419822 0.134194 -0.0227758 0 0 0 -4.76337 1.8138 3.36717 0.01 
64 1 7 -0.0347464 0.227676 0.0355288 0.0494071 0.179073 -0.0364474 0 0 0 -4.76337 1.8138 3.36717 0.01 
65 1 7 -0.0335663 0.230096 0.0441165 0.056832 0.223953 -0.050119 0.0190232 -0.0091667 0.0218954 -4.76337 1.8138 3.36717 0.01 
66 1 7 -0.0323863 0.232517 0.0527041 0.0642569 0.268832 -0.0637906 -0.919787 0.348352 -0.781385 -4.76337 1.8138 3.36717 0.01 
67 1 7 -0.0312062 0.234938 0.0612917 0.0716818 0.313712 -0.0774622 -0.357711 0.0793052 -0.260662 -4.76337 1.8138 3.36717 0.01 
68 1 7 -0.0300262 0.237359 0.0698793 0.0791067 0.358591 -0.0911339 0 0 0 -4.76337 1.8138 3.36717 0.01 
69 1 7 -0.0288461 0.23978 0.0784669 0.0865316 0.403471 -0.104805 0.92797 -0.360054 -0.334617 -4.76337 1.8138 3.36717 0.01 
70 1 7 -0.0276661 0.2422 0.0870545 0.0939565 0.44835 -0.118477 -0.0555272 -0.398482 -0.81118 -4.76337 1.8138 3.36717 0.01 
71 1 8 0.134927 -0.151666 0.103847 0.0335004 -0.309175 -0.0884414 0.00465004 0.009136 -0.00304054 -3.05985 7.78107 0.921888 0.01 
72 1 8 0.139964 -0.150804 0.111256 0.0903531 -0.281862 -0.13027 0 0 0 -3.05985 7.78107 0.921888 0.01 
73 1 8 0.145 -0.149942 0.118664 0.147206 -0.254549 -0.172099 0 0 0 -3.05985 7.78107 0.921888 0.01 
74 1 8 0.150037 -0.14908 0.126073 0.204059 -0.227237 -0.213927 0 0 0 -3.05985 7.78107 0.921888 0.01 
75 1 8 0.155074 -0.148218 0.133482 0.260911 -0.199924 -0.255756 0 0 0 -3.05985 7.78107 0.921888 0.01 
76 1 8 0.16011 -0.147356 0.14089 0.317764 -0.172611 -0.297585 0 0 0 -3.05985 7.78107 0.921888 0.01 
77 1 8 0.165147 -0.146494 0.148299 0.374617 -0.145298 -0.339413 0 0 0 -3.05985 7.78107 0.921888 0.01 
78 1 8 0.170184 -0.145632 0.155708 0.431469 -0.117986 -0.381242 0 0 0 -3.05985 7.78107 0.921888 0.01 
79 1 8 0.17522 -0.14477 0.163116 0.488322 -0.0906729 -0.423071 0 0 0 -3.05985 7.78107 0.921888 0.01 
80 1 8 0.180257 -0.143908 0.170525 0.545175 -0.0633602 -0.464899 0 0 0 -3.05985 7.78107 0.921888 0.01 
81 1 9 -0.127068 0.0420859 0.0711088 0.0530991 0.0270182 -0.341955 0 0 0 -1.17202 -6.06431 2.17019 0.01 
82 1 9 -0.120418 0.0411158 0.077095 0.0189019 0.0484662 -0.300489 0 0 0 -1.17202 -6.06431 2.17019 0.01 
83 1 9 -0.113768 0.0401458 0.0830813 -0.0152952 0.0699142 -0.259024 0 0 0 -1.17202 -6.06431 2.17019 0.01 
84 1 9 -0.107118 0.0391757 0.0890675 -0.0494923 0.0913622 -0.217559 0 0 0 -1.17202 -6.06431 2.17019 0.01 
85 1 9 -0.100468 0.0382057 0.0950537 -0.0836894 0.11281 -0.176094 0 0 0 -1.17202 -6.06431 2.17019 0.01 
86 1 9 -0.0938178 0.0372356 0.10104 -0.117887 0.134258 -0.134628 0.356389 0.191173 -0.0367896 -1.17202 -6.06431 2.17019 0.01 
87 1 9 -0.0871677 0.0362655 0.107026 -0.152084 0.155706 -0.093163 -0.0329834 -0.0215046 0.238618 -1.17202 -6.06431 2.17019 0.01 
88 1 9 -0.0805176 0.0352955 0.113012 -0.186281 0.177154 -0.0516978 0 0 0 -1.17202 -6.06431 2.17019 0.01 
89 1 9 -0.0738675 0.0343254 0.118999 -0.220478 0.198602 -0.0102325 0 0 0 -1.17202 -6.06431 2.17019 0.01 
90 1 9 -0.0672174 0.0333554 0.124985 -0.254675 0.22005 0.0312327 0 0 0 -1.17202 -6.06431 2.17019 0.01 
91 1 10 0.0595864 0.213619 0.106061 0.0672418 0.388516 -0.0999641 -0.0873399 0.753354 1.34613 -4.81117 -0.756255 5.79713 0.01 
92 1 10 0.0554987 0.216406 0.113579 0.0453979 0.40099 -0.116466 0 0 0 -4.81117 -0.756255 5.79713 0.01 
93 1 10 0.051411 0.219194 0.121097 0.0235539 0.413464 -0.132967 0 0 0 -4.81117 -0.756255 5.79713 0.01 
94 1 10 0.0473233 0.221981 0.128615 0.00170999 0.425939 -0.149469 -0.0939626 -0.168368 0.0326181 -4.81117 -0.756255 5.79713 0.01 
95 1 10 0.0432357 0.224768 0.136134 -0.0201339 0.438413 -0.16597 0 0 0 -4.81117 -0.756255 5.79713 0.01 
96 1 10 0.039148 0.227556 0.143652 -0.0419779 0.450887 -0.182471 0 0 0 -4.81117 -0.756255 5.79713 0.01 
97 1 10 0.0350603 0.230343 0.15117 -0.0638218 0.463361 -0.198973 0 0 0 -4.81117 -0.756255 5.79713 0.01 
98 1 10 0.0309727 0.23313 0.158688 -0.0856657 0.475835 -0.215474 0 0 0 -4.81117 -0.756255 5.79713 0.01 
99 1 10 0.026885 0.235918 0.166206 -0.10751 0.488309 -0.231976 0.562016 -0.000666303 0.107177 -4.81117 -0.756255 5.79713 0.01 
100 1 10 0.0227973 0.238705 0.173724 -0.129354 0.500783 -0.248477 0 0 0 -4.81117 -0.756255 5.79713 0.01 
101 1 11 -0.240887 -0.0834693 0.0112192 -0.0438092 0.17792 -0.255996 0.00646976 -0.0132719 0.000162124 5.98181 -2.77081 0.952402 0.01 
102 1 11 -0.239321 -0.0874084 0.0191584 -0.0620555 0.131921 -0.275219 0 0 0 5.98181 -2.77081 0.952402 0.01 
103 1 11 -0.237755 -0.0913475 0.0270976 -0.0803018 0.0859216 -0.294443 0.369975 0.780226 1.44368 5.98181 -2.77081 0.952402 0.01 
104 1 11 -0.236189 -0.0952866 0.0350367 -0.098548 0.0399227 -0.313666 -0.445148 -1.07345 -1.09047 5.98181 -2.77081 0.952402 0.01 
105 1 11 -0.234623 -0.0992258 0.0429759 -0.116794 -0.00607623 -0.332889 0 0 0 5.98181 -2.77081 0.952402 0.01 
106 1 11 -0.233056 -0.103165 0.0509151 -0.135041 -0.0520752 -0.352113 0.796035 0.495433 0.779869 5.98181 -2.77081 0.952402 0.01 
107 1 11 -0.23149 -0.107104 0.0588542 -0.153287 -0.0980741 -0.371336 0 0 0 5.98181 -2.77081 0.952402 0.01 
108 1 11 -0.229924 -0.111043 0.0667934 -0.171533 -0.144073 -0.39056 0 0 0 5.98181 -2.77081 0.952402 0.01 
109 1 11 -0.228358 -0.114982 0.0747325 -0.189779 -0.190072 -0.409783 0 0 0 5.98181 -2.77081 0.952402 0.01 
110 1 11 -0.226792 -0.118921 0.0826717 -0.208026 -0.236071 -0.429007 0 0 0 5.98181 -2.77081 0.952402 0.01 
111 1 12 0.111999 0.0494981 0.0574371 0.209818 0.0109753 -0.521195 0 0 0 0.0855493 -5.35748 -5.39767 0.01 
112 1 12 0.112493 0.0523165 0.0659702 0.179315 0.00758105 -0.51831 0 0 0 0.0855493 -5.35748 -5.39767 0.01 
113 1 12 0.112986 0.0551349 0.0745032 0.148812 0.00418677 -0.515424 0 0 0 0.0855493 -5.35748 -5.39767 0.01 
114 1 12 0.11348 0.0579532 0.0830363 0.118309 0.000792481 -0.512539 0 0 0 0.0855493 -5.35748 -5.39767 0.01 
115 1 12 0.113974 0.0607716 0.0915693 0.0878061 -0.0026018 -0.509653 3.8569 -2.92144 5.12511 0.0855493 -5.35748 -5.39767 0.01 
116 1 12 0.114467 0.06359 0.100102 0.0573031 -0.00599609 -0.506767 0 0 0 0.0855493 -5.35748 -5.39767 0.01 
117 1 12 0.114961 0.0664084 0.108635 0.0268 -0.00939038 -0.503882 0 0 0 0.0855493 -5.35748 -5.39767 0.01 
118 1 12 0.115454 0.0692267 0.117169 -0.003703 -0.0127847 -0.500996 0 0 0 0.0855493 -5.35748 -5.39767 0.01 
119 1 12 0.115948 0.0720451 0.125702 -0.034206 -0.0161789 -0.498111 0 0 0 0.0855493 -5.35748 -5.39767 0.01 
120 1 12 0.116442 0.0748635 0.134235 -0.0647091 -0.0195732 -0.495225 0 0 0 0.0855493 -5.35748 -5.39767 0.01 
121 1 13 -0.00220089 0.259065 0.0851758 0.135281 0.428369 -0.187492 0.0111674 -0.0132954 -0.0017812 0.719449 1.53835 -1.09163 0.01 
122 1 13 -0.00686961 0.254246 0.0911739 0.139247 0.42915 -0.183777 -0.165958 -0.0921997 -0.249513 0.719449 1.53835 -1.09163 0.01 
123 1 13 -0.0115383 0.249426 0.097172 0.143214 0.429932 -0.180062 0 0 0 0.719449 1.53835 -1.09163 0.01 
124 1 13 -0.016207 0.244607 0.10317 0.14718 0.430713 -0.176347 0.196311 0.329221 0.578291 0.719449 1.53835 -1.09163 0.01 
125 1 13 -0.0208758 0.239788 0.109168 0.151146 0.431494 -0.172633 0 0 0 0.719449 1.53835 -1.09163 0.01 
126 1 13 -0.0255445 0.234968 0.115166 0.155112 0.432275 -0.168918 0 0 0 0.719449 1.53835 -1.09163 0.01 
127 1 13 -0.0302132 0.230149 0.121164 0.159078 0.433056 -0.165203 0 0 0 0.719449 1.53835 -1.09163 0.01 
128 1 13 -0.0348819 0.22533 0.127162 0.163045 0.433837 -0.161488 0 0 0 0.719449 1.53835 -1.09163 0.01 
129 1 13 -0.0395506 0.22051 0.13316 0.167011 0.434619 -0.157773 0 0 0 0.719449 1.53835 -1.09163 0.01 
130 1 13 -0.0442193 0.215691 0.139159 0.170977 0.4354 -0.154058 0 0 0 0.719449 1.53835 -1.09163 0.01 
131 1 14 -0.0480995 0.125347 0.00986237 0.0189475 0.0143377 -0.0231179 0.419916 0.606226 0.554892 -2.95004 1.06603 2.84537 0.01 
132 1 14 -0.0454888 0.129604 0.0173499 0.0148172 0.0438547 -0.0384589 -0.432382 -0.535447 0.318786 -2.95004 1.06603 2.84537 0.01 
133 1 14 -0.0428781 0.133861 0.0248375 0.0106868 0.0733717 -0.0537999 -0.120176 -0.236499 0.301353 -2.95004 1.06603 2.84537 0.01 
134 1 14 -0.0402674 0.138117 0.032325 0.00655648 0.102889 -0.0691408 0 0 0 -2.95004 1.06603 2.84537 0.01 
135 1 14 -0.0376567 0.142374 0.0398126 0.00242613 0.132406 -0.0844818 0 0 0 -2.95004 1.06603 2.84537 0.01 
136 1 14 -0.035046 0.146631 0.0473001 -0.00170421 0.161923 -0.0998228 0 0 0 -2.95004 1.06603 2.84537 0.01 
137 1 14 -0.0324354 0.150888 0.0547877 -0.00583456 0.19144 -0.115164 0 0 0 -2.95004 1.06603 2.84537 0.01 
138 1 14 -0.0298247 0.155145 0.0622753 -0.00996491 0.220957 -0.130505 0 0 0 -2.95004 1.06603 2.84537 0.01 
139 1 14 -0.027214 0.159402 0.0697628 -0.0140953 0.250474 -0.145846 -0.0464459 0.0293704 -0.0192905 -2.95004 1.06603 2.84537 0.01 
140 1 14 -0.0246033 0.163659 0.0772504 -0.0182256 0.27999 -0.161187 0 0 0 -2.95004 1.06603 2.84537 0.01 
141 1 15 -0.00665412 -0.0602051 0.00989287 -0.0366785 0.0221924 -0.00296642 0.300711 0.0689044 0.985712 -4.09959 -4.16309 12.6268 0.01 
142 1 15 -0.0101756 -0.062427 0.0178718 -0.0418404 0.0104378 -0.00851788 0 0 0 -4.09959 -4.16309 12.6268 0.01 
143 1 15 -0.013697 -0.0646488 0.0258506 -0.0470023 -0.00131687 -0.0140693 0 0 0 -4.09959 -4.16309 12.6268 0.01 
144 1 15 -0.0172185 -0.0668707 0.0338295 -0.0521642 -0.0130715 -0.0196208 0 0 0 -4.09959 -4.16309 12.6268 0.01 
145 1 15 -0.02074 -0.0690925 0.0418084 -0.057326 -0.0248261 -0.0251722 0.0230104 0.434518 0.412415 -4.09959 -4.16309 12.6268 0.01 
146 1 15 -0.0242614 -0.0713144 0.0497873 -0.0624879 -0.0365808 -0.0307237 0 0 0 -4.09959 -4.16309 12.6268 0.01 
147 1 15 -0.0277829 -0.0735362 0.0577662 -0.0676498 -0.0483354 -0.0362751 -0.0549544 -0.496142 -0.364542 -4.09959 -4.16309 12.6268 0.01 
148 1 15 -0.0313044 -0.0757581 0.0657451 -0.0728117 -0.06009 -0.0418266 -1.24859 -0.614368 -1.09333 -4.09959 -4.16309 12.6268 0.01 
149 1 15 -0.0348258 -0.07798 0.073724 -0.0779735 -0.0718447 -0.0473781 -0.187379 -0.40133 -0.0991216 -4.09959 -4.16309 12.6268 0.01 
150 1 15 -0.0383473 -0.0802018 0.0817029 -0.0831354 -0.0835993 -0.0529295 1.3278 1.02029 0.934637 -4.09959 -4.16309 12.6268 0.01 
151 1 16 -0.0386535 0.179277 0.0100256 -0.0718528 -0.0258419 -0.0242754 0.00286209 0.191083 -0.071117 -5.1085 3.74766 5.62178 0.01 
152 1 16 -0.0372194 0.183792 0.0176783 -0.0685521 0.0213139 -0.0527117 -0.144607 -0.195775 0.273768 -5.1085 3.74766 5.62178 0.01 
153 1 16 -0.0357854 0.188306 0.025331 -0.0652514 0.0684697 -0.0811479 0.00335685 -0.0585556 0.0699449 -5.1085 3.74766 5.62178 0.01 
154 1 16 -0.0343513 0.19282 0.0329836 -0.0619507 0.115625 -0.109584 0.104919 0.05006 0.0310528 -5.1085 3.74766 5.62178 0.01 
155 1 16 -0.0329172 0.197335 0.0406363 -0.0586501 0.162781 -0.13802 0 0 0 -5.1085 3.74766 5.62178 0.01 
156 1 16 -0.0314832 0.201849 0.048289 -0.0553494 0.209937 -0.166457 0 0 0 -5.1085 3.74766 5.62178 0.01 
157 1 16 -0.0300491 0.206364 0.0559417 -0.0520487 0.257093 -0.194893 0 0 0 -5.1085 3.74766 5.62178 0.01 
158 1 16 -0.028615 0.210878 0.0635944 -0.0487481 0.304249 -0.223329 0 0 0 -5.1085 3.74766 5.62178 0.01 
159 1 16 -0.027181 0.215392 0.0712471 -0.0454474 0.351405 -0.251765 0 0 0 -5.1085 3.74766 5.62178 0.01 
160 1 16 -0.0257469 0.219907 0.0788998 -0.0421467 0.39856 -0.280202 0 0 0 -5.1085 3.74766 5.62178 0.01 
161 1 17 0.0742756 0.0901064 0.00985369 -0.0418842 -0.0202019 -0.049647 0.964199 -0.992804 2.5273 5.93002 -0.23109 14.2107 0.01 
162 1 17 0.0771827 0.088245 0.0181654 -0.0173536 -0.0281784 -0.0600132 0 0 0 5.93002 -0.23109 14.2107 0.01 
163 1 17 0.0800898 0.0863837 0.0264771 0.00717708 -0.0361549 -0.0703793 0 0 0 5.93002 -0.23109 14.2107 0.01 
164 1 17 0.0829969 0.0845223 0.0347887 0.0317077 -0.0441314 -0.0807455 0 0 0 5.93002 -0.23109 14.2107 0.01 
165 1 17 0.085904 0.0826609 0.0431004 0.0562384 -0.0521079 -0.0911116 0 0 0 5.93002 -0.23109 14.2107 0.01 
166 1 17 0.0888111 0.0807996 0.0514121 0.0807691 -0.0600845 -0.101478 -0.467507 0.457158 0.75856 5.93002 -0.23109 14.2107 0.01 
167 1 17 0.0917182 0.0789382 0.0597238 0.1053 -0.068061 -0.111844 0.27166 -0.13266 -0.329664 5.93002 -0.23109 14.2107 0.01 
168 1 17 0.0946253 0.0770768 0.0680355 0.12983 -0.0760375 -0.12221 -0.0617738 0.0641666 0.000149461 5.93002 -0.23109 14.2107 0.01 
169 1 17 0.0975324 0.0752155 0.0763472 0.154361 -0.084014 -0.132576 0 0 0 5.93002 -0.23109 14.2107 0.01 
170 1 17 0.100439 0.0733541 0.0846589 0.178892 -0.0919905 -0.142942 -3.8569 2.92144 -5.12511 5.93002 -0.23109 14.2107 0.01 
171 1 18 -0.307793 -0.044588 0.0419696 -0.497006 0.00164632 -0.681803 0 0 0 -4.84531 -3.47952 -8.46576 0.01 
172 1 18 -0.303772 -0.0426493 0.049784 -0.507784 0.0054605 -0.677202 0 0 0 -4.84531 -3.47952 -8.46576 0.01 
173 1 18 -0.29975 -0.0407105 0.0575984 -0.518562 0.00927468 -0.672601 0 0 0 -4.84531 -3.47952 -8.46576 0.01 
174 1 18 -0.295728 -0.0387718 0.0654129 -0.529339 0.0130889 -0.668001 0 0 0 -4.84531 -3.47952 -8.46576 0.01 
175 1 18 -0.291706 -0.0368331 0.0732273 -0.540117 0.016903 -0.6634 0 0 0 -4.84531 -3.47952 -8.46576 0.01 
176 1 18 -0.287684 -0.0348943 0.0810417 -0.550895 0.0207172 -0.658799 0 0 0 -4.84531 -3.47952 -8.46576 0.01 
177 1 18 -0.283662 -0.0329556 0.0888561 -0.561672 0.0245314 -0.654198 0 0 0 -4.84531 -3.47952 -8.46576 0.01 
178 1 18 -0.27964 -0.0310169 0.0966705 -0.57245 0.0283456 -0.649597 0 0 0 -4.84531 -3.47952 -8.46576 0.01 
179 1 18 -0.275618 -0.0290782 0.104485 -0.583227 0.0321597 -0.644997 0 0 0 -4.84531 -3.47952 -8.46576 0.01 
180 1 18 -0.271596 -0.0271394 0.112299 -0.594005 0.0359739 -0.640396 0 0 0 -4.84531 -3.47952 -8.46576 0.01 
181 1 19 0.0180374 0.197672 0.0982057 0.0532209 0.344624 -0.0817832 -0.306768 -0.305877 0.639994 7.09225 -7.05738 6.72166 0.01 
182 1 19 0.0173186 0.190919 0.104111 0.0569358 0.297908 -0.134752 -0.211551 0.182408 0.0530502 7.09225 -7.05738 6.72166 0.01 
183 1 19 0.0165998 0.184165 0.110017 0.0606507 0.251192 -0.187721 0 0 0 7.09225 -7.05738 6.72166 0.01 
184 1 19 0.015881 0.177412 0.115923 0.0643657 0.204477 -0.240689 0 0 0 7.09225 -7.05738 6.72166 0.01 
185 1 19 0.0151622 0.170659 0.121828 0.0680806 0.157761 -0.293658 0 0 0 7.09225 -7.05738 6.72166 0.01 
186 1 19 0.0144434 0.163906 0.127734 0.0717955 0.111045 -0.346627 0 0 0 7.09225 -7.05738 6.72166 0.01 
187 1 19 0.0137246 0.157152 0.13364 0.0755104 0.0643292 -0.399596 0 0 0 7.09225 -7.05738 6.72166 0.01 
188 1 19 0.0130058 0.150399 0.139545 0.0792253 0.0176135 -0.452564 0 0 0 7.09225 -7.05738 6.72166 0.01 
189 1 19 0.012287 0.143646 0.145451 0.0829402 -0.0291023 -0.505533 0 0 0 7.09225 -7.05738 6.72166 0.01 
190 1 19 0.0115682 0.136892 0.151356 0.0866551 -0.0758181 -0.558502 0 0 0 7.09225 -7.05738 6.72166 0.01 
191 1 20 -0.00793716 0.190894 0.00992923 -0.02962 0.00203478 0.019147 0.0573407 0.0545065 0.158227 -6.05503 3.23128 0.891804 0.01 
192 1 20 -0.00573244 0.196072 0.016952 -0.0115458 0.0465242 -0.0193347 -0.202166 0.0371893 0.141104 -6.05503 3.23128 0.891804 0.01 
193 1 20 -0.00352772 0.201251 0.0239748 0.00652838 0.0910136 -0.0578164 -0.0742082 0.0121658 0.0530457 -6.05503 3.23128 0.891804 0.01 
194 1 20 -0.00132299 0.20643 0.0309976 0.0246026 0.135503 -0.096298 0 0 0 -6.05503 3.23128 0.891804 0.01 
195 1 20 0.000881727 0.211609 0.0380204 0.0426768 0.179992 -0.13478 0 0 0 -6.05503 3.23128 0.891804 0.01 
196 1 20 0.00308645 0.216788 0.0450432 0.060751 0.224482 -0.173261 0 0 0 -6.05503 3.23128 0.891804 0.01 
197 1 20 0.00529117 0.221966 0.052066 0.0788251 0.268971 -0.211743 0 0 0 -6.05503 3.23128 0.891804 0.01 
198 1 20 0.00749589 0.227145 0.0590888 0.0968993 0.313461 -0.250225 0 0 0 -6.05503 3.23128 0.891804 0.01 
199 1 20 0.00970061 0.232324 0.0661116 0.114974 0.35795 -0.288706 0 0 0 -6.05503 3.23128 0.891804 0.01 
200 1 20 0.0119053 0.237503 0.0731343 0.133048 0.402439 -0.327188 -0.0486135 0.240529 -0.115105 -6.05503 3.23128 0.891804 0.01 
201 1 21 0.0170141 0.0063623 0.0101083 -0.0897089 -0.057641 0.0504485 0 0 0 -7.82663 -1.80423 2.30094 0.01 
202 1 21 0.0151641 0.0114948 0.0172662 -0.114433 -0.00587551 0.00694093 -0.0403949 0.146134 -0.00308632 -7.82663 -1.80423 2.30094 0.01 
203 1 21 0.0133141 0.0166272 0.024424 -0.139157 0.04589 -0.0365667 -0.268673 -0.518115 0.868597 -7.82663 -1.80423 2.30094 0.01 
204 1 21 0.0114641 0.0217597 0.0315819 -0.163881 0.0976555 -0.0800743 0.295945 0.208696 0.0160147 -7.82663 -1.80423 2.30094 0.01 
205 1 21 0.00961415 0.0268921 0.0387398 -0.188605 0.149421 -0.123582 0 0 0 -7.82663 -1.80423 2.30094 0.01 
206 1 21 0.00776418 0.0320246 0.0458977 -0.213329 0.201186 -0.16709 0 0 0 -7.82663 -1.80423 2.30094 0.01 
207 1 21 0.0059142 0.037157 0.0530556 -0.238053 0.252952 -0.210597 0 0 0 -7.82663 -1.80423 2.30094 0.01 
208 1 21 0.00406423 0.0422895 0.0602135 -0.262777 0.304717 -0.254105 0 0 0 -7.82663 -1.80423 2.30094 0.01 
209 1 21 0.00221425 0.047422 0.0673714 -0.287501 0.356483 -0.297612 0 0 0 -7.82663 -1.80423 2.30094 0.01 
210 1 21 0.000364276 0.0525544 0.0745293 -0.312225 0.408248 -0.34112 0 0 0 -7.82663 -1.80423 2.30094 0.01 
211 1 22 0.0150018 0.249552 0.0888162 0.0922028 0.335454 -0.201111 -0.0111674 0.0132954 0.0017812 -4.76076 -10.0488 5.54456 0.01 
212 1 22 0.012482 0.243138 0.0946055 0.0695882 0.349044 -0.195898 0 0 0 -4.76076 -10.0488 5.54456 0.01 
213 1 22 0.00996216 0.236724 0.100395 0.0469736 0.362634 -0.190685 0 0 0 -4.76076 -10.0488 5.54456 0.01 
214 1 22 0.00744235 0.230311 0.106184 0.024359 0.376224 -0.185472 -0.0531625 0.0293858 0.14339 -4.76076 -10.0488 5.54456 0.01 
215 1 22 0.00492255 0.223897 0.111973 0.00174439 0.389815 -0.18026 -0.0390631 0.5488 1.16052 -4.76076 -10.0488 5.54456 0.01 
216 1 22 0.00240274 0.217484 0.117763 -0.0208702 0.403405 -0.175047 0.0723228 0.597114 1.36085 -4.76076 -10.0488 5.54456 0.01 
217 1 22 -0.000117067 0.21107 0.123552 -0.0434848 0.416995 -0.169834 -0.746921 -0.994249 -1.35759 -4.76076 -10.0488 5.54456 0.01 
218 1 22 -0.00263687 0.204656 0.129341 -0.0660994 0.430585 -0.164621 0 0 0 -4.76076 -10.0488 5.54456 0.01 
219 1 22 -0.00515668 0.198243 0.135131 -0.088714 0.444176 -0.159409 0 0 0 -4.76076 -10.0488 5.54456 0.01 
220 1 22 -0.00767649 0.191829 0.14092 -0.111329 0.457766 -0.154196 0 0 0 -4.76076 -10.0488 5.54456 0.01 
221 1 23 0.236625 0.0492529 0.104276 0.397436 -0.0104894 -0.247845 -0.0321712 -0.00261053 -0.0752322 -13.1039 3.64483 12.5004 0.01 
222 1 23 0.232426 0.0545872 0.110185 0.352294 0.0144569 -0.302441 0.135311 0.00438671 0.179417 -13.1039 3.64483 12.5004 0.01 
223 1 23 0.228227 0.0599214 0.116094 0.307151 0.0394032 -0.357037 0 0 0 -13.1039 3.64483 12.5004 0.01 
224 1 23 0.224029 0.0652556 0.122003 0.262008 0.0643495 -0.411632 0 0 0 -13.1039 3.64483 12.5004 0.01 
225 1 23 0.21983 0.0705899 0.127912 0.216866 0.0892958 -0.466228 0 0 0 -13.1039 3.64483 12.5004 0.01 
226 1 23 0.215631 0.0759241 0.133821 0.171723 0.114242 -0.520824 0 0 0 -13.1039 3.64483 12.5004 0.01 
227 1 23 0.211433 0.0812583 0.13973 0.12658 0.139188 -0.57542 0 0 0 -13.1039 3.64483 12.5004 0.01 
228 1 23 0.207234 0.0865926 0.145639 0.0814376 0.164135 -0.630015 0 0 0 -13.1039 3.64483 12.5004 0.01 
229 1 23 0.203035 0.0919268 0.151548 0.0362949 0.189081 -0.684611 0 0 0 -13.1039 3.64483 12.5004 0.01 
230 1 23 0.198837 0.097261 0.157458 -0.00884774 0.214027 -0.739207 0 0 0 -13.1039 3.64483 12.5004 0.01 
231 1 24 0.163082 0.0224871 0.00994474 0.0976597 0.0292961 0.000668406 0.112098 -0.0284833 0.332125 -2.95016 9.75388 -5.22593 0.01 
232 1 24 0.169458 0.0206515 0.0160258 0.147381 0.0139167 -0.0561052 0 0 0 -2.95016 9.75388 -5.22593 0.01 
233 1 24 0.175834 0.0188159 0.0221069 0.197102 -0.00146266 -0.112879 0 0 0 -2.95016 9.75388 -5.22593 0.01 
234 1 24 0.18221 0.0169803 0.028188 0.246824 -0.0168421 -0.169652 0 0 0 -2.95016 9.75388 -5.22593 0.01 
235 1 24 0.188586 0.0151447 0.0342691 0.296545 -0.0322215 -0.226426 0 0 0 -2.95016 9.75388 -5.22593 0.01 
236 1 24 0.194962 0.013309 0.0403501 0.346267 -0.0476009 -0.2832 0 0 0 -2.95016 9.75388 -5.22593 0.01 
237 1 24 0.201337 0.0114734 0.0464312 0.395988 -0.0629803 -0.339973 0 0 0 -2.95016 9.75388 -5.22593 0.01 
238 1 24 0.207713 0.00963783 0.0525123 0.445709 -0.0783597 -0.396747 0 0 0 -2.95016 9.75388 -5.22593 0.01 
239 1 24 0.214089 0.00780222 0.0585934 0.495431 -0.0937391 -0.45352 0 0 0 -2.95016 9.75388 -5.22593 0.01 
240 1 24 0.220465 0.00596661 0.0646745 0.545152 -0.109118 -0.510294 0 0 0 -2.95016 9.75388 -5.22593 0.01 
241 1 25 0.140358 -0.196982 0.0975056 -0.0391894 -0.0872764 -0.651223 0 0 0 3.67224 13.049 13.7416 0.01 
242 1 25 0.140826 -0.191858 0.10489 -0.0132475 -0.107959 -0.638516 0 0 0 3.67224 13.049 13.7416 0.01 
243 1 25 0.141294 -0.186734 0.112274 0.0126944 -0.128641 -0.625809 0 0 0 3.67224 13.049 13.7416 0.01 
244 1 25 0.141762 -0.181609 0.119658 0.0386364 -0.149323 -0.613102 -0.0490807 0.00651958 -0.0537488 3.67224 13.049 13.7416 0.01 
245 1 25 0.142231 -0.176485 0.127042 0.0645783 -0.170005 -0.600394 0 0 0 3.67224 13.049 13.7416 0.01 
246 1 25 0.142699 -0.171361 0.134426 0.0905202 -0.190687 -0.587687 0 0 0 3.67224 13.049 13.7416 0.01 
247 1 25 0.143167 -0.166237 0.14181 0.116462 -0.211369 -0.57498 0 0 0 3.67224 13.049 13.7416 0.01 
248 1 25 0.143635 -0.161113 0.149194 0.142404 -0.232051 -0.562273 0 0 0 3.67224 13.049 13.7416 0.01 
249 1 25 0.144103 -0.155989 0.156578 0.168346 -0.252733 -0.549566 0 0 0 3.67224 13.049 13.7416 0.01 
250 1 25 0.144572 -0.150865 0.163962 0.194288 -0.273415 -0.536859 0 0 0 3.67224 13.049 13.7416 0.01 
251 1 26 -0.0059499 -0.17548 0.00993699 0.0260297 -0.0474939 0.00302997 -0.0278845 -0.19109 0.365641 4.85654 2.43571 -5.47377 0.01 
252 1 26 -0.00480501 -0.180264 0.0174735 0.0181976 -0.0903621 -0.0229943 0 0 0 4.85654 2.43571 -5.47377 0.01 
253 1 26 -0.00366012 -0.185049 0.02501 0.0103655 -0.13323 -0.0490187 0 0 0 4.85654 2.43571 -5.47377 0.01 
254 1 26 -0.00251523 -0.189833 0.0325465 0.00253349 -0.176098 -0.075043 0.18532 0.367407 0.0147952 4.85654 2.43571 -5.47377 0.01 
255 1 26 -0.00137034 -0.194617 0.0400829 -0.00529856 -0.218966 -0.101067 0 0 0 4.85654 2.43571 -5.47377 0.01 
256 1 26 -0.00022545 -0.199402 0.0476194 -0.0131306 -0.261835 -0.127092 0 0 0 4.85654 2.43571 -5.47377 0.01 
257 1 26 0.00091944 -0.204186 0.0551559 -0.0209627 -0.304703 -0.153116 0 0 0 4.85654 2.43571 -5.47377 0.01 
258 1 26 0.00206433 -0.208971 0.0626924 -0.0287947 -0.347571 -0.17914 0 0 0 4.85654 2.43571 -5.47377 0.01 
259 1 26 0.00320922 -0.213755 0.0702289 -0.0366268 -0.390439 -0.205165 0 0 0 4.85654 2.43571 -5.47377 0.01 
260 1 26 0.00435411 -0.218539 0.0777654 -0.0444588 -0.433307 -0.231189 -0.0336916 0.0277717 0.00025989 4.85654 2.43571 -5.47377 0.01 
261 1 27 -0.132611 0.211226 0.0868748 -0.152379 0.481671 -0.276494 0.0190497 0.16484 -0.289451 -4.10075 -12.5816 7.37585 0.01 
262 1 27 -0.135083 0.203967 0.0915853 -0.158098 0.48276 -0.277817 0 0 0 -4.10075 -12.5816 7.37585 0.01 