ITEM: TIMESTEP
13000
ITEM: NUMBER OF ATOMS
6300
ITEM: BOX BOUNDS mm mm mm
-0.3 0.3
-0.3 0.3
0 0.5
ITEM: ATOMS id type mol x y z vx vy vz fx fy fz omegax omegay omegaz radius 
1 1 1 -0.116326 -0.127168 0.103746 -0.10523 0.119611 -0.170946 0 0 0 0.355804 2.19433 5.02167 0.01 
2 1 1 -0.116836 -0.126523 0.112708 -0.0888067 0.113861 -0.169598 0 0 0 0.355804 2.19433 5.02167 0.01 
3 1 1 -0.117346 -0.125877 0.121671 -0.0723834 0.108111 -0.168249 0 0 0 0.355804 2.19433 5.02167 0.01 
4 1 1 -0.117856 -0.125231 0.130633 -0.0559601 0.102361 -0.1669 0 0 0 0.355804 2.19433 5.02167 0.01 
5 1 1 -0.118366 -0.124585 0.139595 -0.0395368 0.0966116 -0.165551 0 0 0 0.355804 2.19433 5.02167 0.01 
6 1 1 -0.118876 -0.12394 0.148558 -0.0231135 0.0908618 -0.164202 0 0 0 0.355804 2.19433 5.02167 0.01 
7 1 1 -0.119386 -0.123294 0.15752 -0.00669019 0.0851121 -0.162853 0 0 0 0.355804 2.19433 5.02167 0.01 
8 1 1 -0.119896 -0.122648 0.166482 0.0097331 0.0793623 -0.161505 0 0 0 0.355804 2.19433 5.02167 0.01 
9 1 1 -0.120406 -0.122002 0.175445 0.0261564 0.0736126 -0.160156 0 0 0 0.355804 2.19433 5.02167 0.01 
10 1 1 -0.120916 -0.121356 0.184407 0.0425797 0.0678628 -0.158807 -0.191138 0.1252 0.141077 0.355804 2.19433 5.02167 0.01 
11 1 2 -0.0378396 -0.105792 0.0682473 0.294893 -0.116502 -0.893241 0 0 0 -1.62392 -0.791353 16.4301 0.01 
12 1 2 -0.0382028 -0.105353 0.0772293 0.280584 -0.107884 -0.89424 0 0 0 -1.62392 -0.791353 16.4301 0.01 
13 1 2 -0.038566 -0.104915 0.0862113 0.266275 -0.0992654 -0.895239 0 0 0 -1.62392 -0.791353 16.4301 0.01 
14 1 2 -0.0389292 -0.104477 0.0951933 0.251965 -0.0906469 -0.896238 0 0 0 -1.62392 -0.791353 16.4301 0.01 
15 1 2 -0.0392924 -0.104038 0.104175 0.237656 -0.0820284 -0.897237 0 0 0 -1.62392 -0.791353 16.4301 0.01 
16 1 2 -0.0396556 -0.1036 0.113157 0.223347 -0.0734099 -0.898237 0 0 0 -1.62392 -0.791353 16.4301 0.01 
17 1 2 -0.0400188 -0.103162 0.122139 0.209037 -0.0647914 -0.899236 0 0 0 -1.62392 -0.791353 16.4301 0.01 
18 1 2 -0.0403821 -0.102723 0.131121 0.194728 -0.0561728 -0.900235 0 0 0 -1.62392 -0.791353 16.4301 0.01 
19 1 2 -0.0407453 -0.102285 0.140103 0.180419 -0.0475543 -0.901234 0 0 0 -1.62392 -0.791353 16.4301 0.01 
20 1 2 -0.0411085 -0.101847 0.149085 0.166109 -0.0389358 -0.902233 0 0 0 -1.62392 -0.791353 16.4301 0.01 
21 1 3 -0.0350207 -0.0266442 0.0502643 0.196992 0.12657 -1.28284 0 0 0 8.9244 0.54676 -10.2585 0.01 
22 1 3 -0.0366005 -0.0282744 0.0589733 0.185031 0.0650547 -1.29652 0 0 0 8.9244 0.54676 -10.2585 0.01 
23 1 3 -0.0381804 -0.0299046 0.0676823 0.173069 0.00353899 -1.31021 0 0 0 8.9244 0.54676 -10.2585 0.01 
24 1 3 -0.0397603 -0.0315348 0.0763913 0.161107 -0.0579767 -1.32389 0 0 0 8.9244 0.54676 -10.2585 0.01 
25 1 3 -0.0413401 -0.033165 0.0851002 0.149146 -0.119492 -1.33757 0 0 0 8.9244 0.54676 -10.2585 0.01 
26 1 3 -0.04292 -0.0347952 0.0938092 0.137184 -0.181008 -1.35126 -0.196985 0.107901 -0.191178 8.9244 0.54676 -10.2585 0.01 
27 1 3 -0.0444998 -0.0364254 0.102518 0.125223 -0.242524 -1.36494 -0.0237124 0.857623 -0.871515 8.9244 0.54676 -10.2585 0.01 
28 1 3 -0.0460797 -0.0380556 0.111227 0.113261 -0.304039 -1.37863 0 0 0 8.9244 0.54676 -10.2585 0.01 
29 1 3 -0.0476595 -0.0396858 0.119936 0.101299 -0.365555 -1.39231 0 0 0 8.9244 0.54676 -10.2585 0.01 
30 1 3 -0.0492394 -0.041316 0.128645 0.0893377 -0.427071 -1.406 0 0 0 8.9244 0.54676 -10.2585 0.01 
31 1 4 -0.0910181 0.109442 0.0131706 0.12376 -0.100128 -0.433475 0 0 0 -0.621836 -0.226388 -6.14491 0.01 
32 1 4 -0.0910786 0.109535 0.0221699 0.122294 -0.0941599 -0.433547 0 0 0 -0.621836 -0.226388 -6.14491 0.01 
33 1 4 -0.0911391 0.109628 0.0311692 0.120828 -0.088192 -0.433618 0 0 0 -0.621836 -0.226388 -6.14491 0.01 
34 1 4 -0.0911996 0.109721 0.0401685 0.119362 -0.0822241 -0.43369 0 0 0 -0.621836 -0.226388 -6.14491 0.01 
35 1 4 -0.0912601 0.109814 0.0491679 0.117896 -0.0762562 -0.433761 0 0 0 -0.621836 -0.226388 -6.14491 0.01 
36 1 4 -0.0913206 0.109907 0.0581672 0.116431 -0.0702883 -0.433833 0 0 0 -0.621836 -0.226388 -6.14491 0.01 
37 1 4 -0.0913811 0.11 0.0671665 0.114965 -0.0643204 -0.433905 0 0 0 -0.621836 -0.226388 -6.14491 0.01 
38 1 4 -0.0914416 0.110093 0.0761658 0.113499 -0.0583525 -0.433976 0 0 0 -0.621836 -0.226388 -6.14491 0.01 
39 1 4 -0.0915021 0.110186 0.0851651 0.112033 -0.0523846 -0.434048 0 0 0 -0.621836 -0.226388 -6.14491 0.01 
40 1 4 -0.0915627 0.110279 0.0941644 0.110567 -0.0464167 -0.434119 0 0 0 -0.621836 -0.226388 -6.14491 0.01 
41 1 5 0.0763826 -0.135234 0.0470717 -0.0664291 -0.0245037 -1.14494 0.00430744 0.503738 0.337781 -2.04956 2.19253 -1.69352 0.01 
42 1 5 0.0772437 -0.134137 0.055963 -0.0450768 -0.00773869 -1.14908 -0.103923 -0.344138 0.253776 -2.04956 2.19253 -1.69352 0.01 
43 1 5 0.0781047 -0.13304 0.0648543 -0.0237245 0.00902634 -1.15321 1.07478 -0.680519 0.722085 -2.04956 2.19253 -1.69352 0.01 
44 1 5 0.0789657 -0.131943 0.0737456 -0.00237217 0.0257914 -1.15735 0 0 0 -2.04956 2.19253 -1.69352 0.01 
45 1 5 0.0798268 -0.130846 0.0826369 0.0189802 0.0425564 -1.16148 0 0 0 -2.04956 2.19253 -1.69352 0.01 
46 1 5 0.0806878 -0.129749 0.0915282 0.0403325 0.0593214 -1.16562 0 0 0 -2.04956 2.19253 -1.69352 0.01 
47 1 5 0.0815488 -0.128652 0.100419 0.0616848 0.0760865 -1.16976 0 0 0 -2.04956 2.19253 -1.69352 0.01 
48 1 5 0.0824099 -0.127555 0.109311 0.0830371 0.0928515 -1.17389 0 0 0 -2.04956 2.19253 -1.69352 0.01 
49 1 5 0.0832709 -0.126458 0.118202 0.104389 0.109617 -1.17803 0 0 0 -2.04956 2.19253 -1.69352 0.01 
50 1 5 0.0841319 -0.125361 0.127093 0.125742 0.126382 -1.18217 0 0 0 -2.04956 2.19253 -1.69352 0.01 
51 1 6 0.175633 -0.0337124 0.016137 0.0869939 0.191215 -1.72042 0 0 0 1.12043 -4.12445 -0.0175336 0.01 
52 1 6 0.174545 -0.0347339 0.0250125 0.0503697 0.181289 -1.72605 0 0 0 1.12043 -4.12445 -0.0175336 0.01 
53 1 6 0.173457 -0.0357553 0.0338879 0.0137456 0.171364 -1.73168 0 0 0 1.12043 -4.12445 -0.0175336 0.01 
54 1 6 0.172369 -0.0367768 0.0427633 -0.0228785 0.161439 -1.73731 0 0 0 1.12043 -4.12445 -0.0175336 0.01 
55 1 6 0.171281 -0.0377983 0.0516387 -0.0595026 0.151514 -1.74294 0 0 0 1.12043 -4.12445 -0.0175336 0.01 
56 1 6 0.170193 -0.0388198 0.0605141 -0.0961267 0.141588 -1.74857 0 0 0 1.12043 -4.12445 -0.0175336 0.01 
57 1 6 0.169105 -0.0398412 0.0693896 -0.132751 0.131663 -1.7542 0 0 0 1.12043 -4.12445 -0.0175336 0.01 
58 1 6 0.168017 -0.0408627 0.078265 -0.169375 0.121738 -1.75984 0 0 0 1.12043 -4.12445 -0.0175336 0.01 
59 1 6 0.16693 -0.0418842 0.0871404 -0.205999 0.111813 -1.76547 0 0 0 1.12043 -4.12445 -0.0175336 0.01 
60 1 6 0.165842 -0.0429057 0.0960158 -0.242623 0.101887 -1.7711 0 0 0 1.12043 -4.12445 -0.0175336 0.01 
61 1 7 -0.037023 0.218269 0.0128156 0.0127105 0.0421335 -2.0505 0 0 0 0.763916 -0.693345 0.55716 0.01 
62 1 7 -0.0372686 0.217951 0.0218067 0.00665368 0.0351283 -2.05091 0 0 0 0.763916 -0.693345 0.55716 0.01 
63 1 7 -0.0375141 0.217633 0.0307977 0.000596894 0.0281231 -2.05133 0 0 0 0.763916 -0.693345 0.55716 0.01 
64 1 7 -0.0377597 0.217315 0.0397887 -0.00545989 0.0211179 -2.05174 0 0 0 0.763916 -0.693345 0.55716 0.01 
65 1 7 -0.0380052 0.216997 0.0487798 -0.0115167 0.0141127 -2.05215 0 0 0 0.763916 -0.693345 0.55716 0.01 
66 1 7 -0.0382507 0.216679 0.0577708 -0.0175735 0.00710746 -2.05256 0 0 0 0.763916 -0.693345 0.55716 0.01 
67 1 7 -0.0384963 0.216362 0.0667618 -0.0236302 0.000102251 -2.05298 0 0 0 0.763916 -0.693345 0.55716 0.01 
68 1 7 -0.0387418 0.216044 0.0757529 -0.029687 -0.00690295 -2.05339 0 0 0 0.763916 -0.693345 0.55716 0.01 
69 1 7 -0.0389874 0.215726 0.0847439 -0.0357438 -0.0139082 -2.0538 0 0 0 0.763916 -0.693345 0.55716 0.01 
70 1 7 -0.0392329 0.215408 0.0937349 -0.0418006 -0.0209134 -2.05422 0 0 0 0.763916 -0.693345 0.55716 0.01 
71 1 8 0.123814 -0.133541 0.11048 0.125486 0.115077 -0.0743911 0 0 0 -0.421473 -1.10028 -11.0029 0.01 
72 1 8 0.125042 -0.133561 0.119396 0.115454 0.105321 -0.0730312 0 0 0 -0.421473 -1.10028 -11.0029 0.01 
73 1 8 0.126271 -0.133581 0.128312 0.105422 0.0955644 -0.0716712 0 0 0 -0.421473 -1.10028 -11.0029 0.01 
74 1 8 0.127499 -0.133601 0.137227 0.0953905 0.0858079 -0.0703113 0 0 0 -0.421473 -1.10028 -11.0029 0.01 
75 1 8 0.128727 -0.133621 0.146143 0.0853586 0.0760514 -0.0689514 0 0 0 -0.421473 -1.10028 -11.0029 0.01 
76 1 8 0.129955 -0.133642 0.155059 0.0753267 0.0662949 -0.0675915 0 0 0 -0.421473 -1.10028 -11.0029 0.01 
77 1 8 0.131184 -0.133662 0.163975 0.0652949 0.0565384 -0.0662316 0 0 0 -0.421473 -1.10028 -11.0029 0.01 
78 1 8 0.132412 -0.133682 0.172891 0.055263 0.0467819 -0.0648717 0 0 0 -0.421473 -1.10028 -11.0029 0.01 
79 1 8 0.13364 -0.133702 0.181806 0.0452311 0.0370254 -0.0635118 0 0 0 -0.421473 -1.10028 -11.0029 0.01 
80 1 8 0.134868 -0.133722 0.190722 0.0351993 0.0272689 -0.0621518 0 0 0 -0.421473 -1.10028 -11.0029 0.01 
81 1 9 -0.105034 0.0210596 0.147566 -0.0822198 -0.0297045 -2.16544 0 0 0 -0.506341 0.983649 -1.47441 0.01 
82 1 9 -0.104845 0.0211426 0.156564 -0.0732469 -0.025427 -2.16566 0 0 0 -0.506341 0.983649 -1.47441 0.01 
83 1 9 -0.104656 0.0212256 0.165562 -0.0642741 -0.0211495 -2.16589 0 0 0 -0.506341 0.983649 -1.47441 0.01 
84 1 9 -0.104468 0.0213086 0.174559 -0.0553012 -0.0168721 -2.16612 0 0 0 -0.506341 0.983649 -1.47441 0.01 
85 1 9 -0.104279 0.0213916 0.183557 -0.0463283 -0.0125946 -2.16635 0 0 0 -0.506341 0.983649 -1.47441 0.01 
86 1 9 -0.10409 0.0214746 0.192554 -0.0373554 -0.00831709 -2.16658 0 0 0 -0.506341 0.983649 -1.47441 0.01 
87 1 9 -0.103901 0.0215576 0.201552 -0.0283826 -0.00403961 -2.1668 0 0 0 -0.506341 0.983649 -1.47441 0.01 
88 1 9 -0.103712 0.0216405 0.21055 -0.0194097 0.000237876 -2.16703 0 0 0 -0.506341 0.983649 -1.47441 0.01 
89 1 9 -0.103524 0.0217235 0.219547 -0.0104368 0.00451536 -2.16726 0 0 0 -0.506341 0.983649 -1.47441 0.01 
90 1 9 -0.103335 0.0218065 0.228545 -0.00146394 0.00879284 -2.16749 0 0 0 -0.506341 0.983649 -1.47441 0.01 
91 1 10 0.0574687 0.200328 0.109894 0.0531331 -0.0143953 -0.197568 -0.512924 -0.255555 3.48636 0.561625 -0.522743 -0.936069 0.01 
92 1 10 0.0566407 0.200875 0.118839 0.0489691 -0.0186441 -0.197694 0 0 0 0.561625 -0.522743 -0.936069 0.01 
93 1 10 0.0558127 0.201422 0.127784 0.0448051 -0.0228928 -0.197819 0 0 0 0.561625 -0.522743 -0.936069 0.01 
94 1 10 0.0549847 0.201969 0.136729 0.040641 -0.0271416 -0.197945 0 0 0 0.561625 -0.522743 -0.936069 0.01 
95 1 10 0.0541567 0.202516 0.145675 0.036477 -0.0313903 -0.198071 0 0 0 0.561625 -0.522743 -0.936069 0.01 
96 1 10 0.0533287 0.203062 0.15462 0.0323129 -0.035639 -0.198196 0 0 0 0.561625 -0.522743 -0.936069 0.01 
97 1 10 0.0525007 0.203609 0.163565 0.0281489 -0.0398878 -0.198322 0 0 0 0.561625 -0.522743 -0.936069 0.01 
98 1 10 0.0516727 0.204156 0.17251 0.0239849 -0.0441365 -0.198448 0.205959 0.396863 -0.275014 0.561625 -0.522743 -0.936069 0.01 
99 1 10 0.0508447 0.204703 0.181455 0.0198208 -0.0483853 -0.198573 0.379148 0.811631 -0.554839 0.561625 -0.522743 -0.936069 0.01 
100 1 10 0.0500167 0.20525 0.1904 0.0156568 -0.052634 -0.198699 0.366606 0.874068 -0.590791 0.561625 -0.522743 -0.936069 0.01 
101 1 11 -0.194257 -0.092166 0.0912024 -0.342778 -0.107901 -0.720025 -0.691986 -0.761869 0.735115 -0.513162 2.64612 13.32 0.01 
102 1 11 -0.194024 -0.0925583 0.100191 -0.313768 -0.100184 -0.720441 0 0 0 -0.513162 2.64612 13.32 0.01 
103 1 11 -0.193791 -0.0929507 0.109179 -0.284758 -0.092468 -0.720856 0 0 0 -0.513162 2.64612 13.32 0.01 
104 1 11 -0.193558 -0.093343 0.118168 -0.255747 -0.0847517 -0.721271 0 0 0 -0.513162 2.64612 13.32 0.01 
105 1 11 -0.193325 -0.0937354 0.127156 -0.226737 -0.0770354 -0.721686 0 0 0 -0.513162 2.64612 13.32 0.01 
106 1 11 -0.193092 -0.0941277 0.136145 -0.197727 -0.0693192 -0.722102 0 0 0 -0.513162 2.64612 13.32 0.01 
107 1 11 -0.192859 -0.09452 0.145133 -0.168716 -0.0616029 -0.722517 0 0 0 -0.513162 2.64612 13.32 0.01 
108 1 11 -0.192626 -0.0949124 0.154121 -0.139706 -0.0538866 -0.722932 0 0 0 -0.513162 2.64612 13.32 0.01 
109 1 11 -0.192393 -0.0953047 0.16311 -0.110696 -0.0461703 -0.723347 0 0 0 -0.513162 2.64612 13.32 0.01 
110 1 11 -0.19216 -0.095697 0.172098 -0.0816852 -0.038454 -0.723763 0 0 0 -0.513162 2.64612 13.32 0.01 
111 1 12 0.0977761 0.0504809 0.115076 -0.104696 -0.000202863 0.044282 0 0 0 -1.02973 3.24952 -1.81239 0.01 
112 1 12 0.0991294 0.0517756 0.123879 -0.0737442 0.00640894 0.038551 0 0 0 -1.02973 3.24952 -1.81239 0.01 
113 1 12 0.100483 0.0530703 0.132682 -0.0427923 0.0130207 0.03282 0 0 0 -1.02973 3.24952 -1.81239 0.01 
114 1 12 0.101836 0.054365 0.141485 -0.0118404 0.0196325 0.027089 0 0 0 -1.02973 3.24952 -1.81239 0.01 
115 1 12 0.10319 0.0556598 0.150288 0.0191115 0.0262443 0.021358 0 0 0 -1.02973 3.24952 -1.81239 0.01 
116 1 12 0.104543 0.0569545 0.159091 0.0500633 0.0328561 0.015627 0 0 0 -1.02973 3.24952 -1.81239 0.01 
117 1 12 0.105896 0.0582492 0.167894 0.0810152 0.0394679 0.009896 0 0 0 -1.02973 3.24952 -1.81239 0.01 
118 1 12 0.10725 0.0595439 0.176697 0.111967 0.0460797 0.004165 0.0719347 1.99537e-05 -0.033362 -1.02973 3.24952 -1.81239 0.01 
119 1 12 0.108603 0.0608386 0.1855 0.142919 0.0526915 -0.001566 0 0 0 -1.02973 3.24952 -1.81239 0.01 
120 1 12 0.109956 0.0621333 0.194303 0.173871 0.0593033 -0.007297 0 0 0 -1.02973 3.24952 -1.81239 0.01 
121 1 13 -0.0165262 0.21642 0.12036 0.0306389 0.109419 -1.92861 -1.8511 1.83201 43.1525 4.18748 -1.54008 -1.74816 0.01 
122 1 13 -0.016667 0.216143 0.129355 0.0163017 0.072 -1.92999 0 0 0 4.18748 -1.54008 -1.74816 0.01 
123 1 13 -0.0168079 0.215865 0.138349 0.00196441 0.0345815 -1.93137 0 0 0 4.18748 -1.54008 -1.74816 0.01 
124 1 13 -0.0169487 0.215588 0.147344 -0.0123728 -0.00283709 -1.93275 0 0 0 4.18748 -1.54008 -1.74816 0.01 
125 1 13 -0.0170896 0.215311 0.156339 -0.0267101 -0.0402556 -1.93413 0 0 0 4.18748 -1.54008 -1.74816 0.01 
126 1 13 -0.0172304 0.215034 0.165333 -0.0410474 -0.0776742 -1.9355 0 0 0 4.18748 -1.54008 -1.74816 0.01 
127 1 13 -0.0173713 0.214756 0.174328 -0.0553846 -0.115093 -1.93688 0 0 0 4.18748 -1.54008 -1.74816 0.01 
128 1 13 -0.0175121 0.214479 0.183323 -0.0697219 -0.152511 -1.93826 0 0 0 4.18748 -1.54008 -1.74816 0.01 
129 1 13 -0.017653 0.214202 0.192317 -0.0840591 -0.18993 -1.93964 0 0 0 4.18748 -1.54008 -1.74816 0.01 
130 1 13 -0.0177938 0.213924 0.201312 -0.0983964 -0.227348 -1.94102 0 0 0 4.18748 -1.54008 -1.74816 0.01 
131 1 14 -0.0470027 0.120116 0.00997951 0.012992 0.0205877 -0.00466434 0.0182535 0.0241857 0.137671 -2.20234 1.40516 -7.48927 0.01 
132 1 14 -0.0464712 0.120718 0.0189436 0.030095 0.0363488 -0.00673659 0 0 0 -2.20234 1.40516 -7.48927 0.01 
133 1 14 -0.0459396 0.121319 0.0279077 0.0471979 0.05211 -0.00880884 0 0 0 -2.20234 1.40516 -7.48927 0.01 
134 1 14 -0.0454081 0.121921 0.0368718 0.0643009 0.0678711 -0.0108811 0 0 0 -2.20234 1.40516 -7.48927 0.01 
135 1 14 -0.0448765 0.122523 0.045836 0.0814039 0.0836322 -0.0129533 0 0 0 -2.20234 1.40516 -7.48927 0.01 
136 1 14 -0.044345 0.123125 0.0548001 0.0985069 0.0993934 -0.0150256 0 0 0 -2.20234 1.40516 -7.48927 0.01 
137 1 14 -0.0438134 0.123727 0.0637642 0.11561 0.115155 -0.0170978 0 0 0 -2.20234 1.40516 -7.48927 0.01 
138 1 14 -0.0432819 0.124328 0.0727283 0.132713 0.130916 -0.0191701 0 0 0 -2.20234 1.40516 -7.48927 0.01 
139 1 14 -0.0427504 0.12493 0.0816924 0.149816 0.146677 -0.0212423 0 0 0 -2.20234 1.40516 -7.48927 0.01 
140 1 14 -0.0422188 0.125532 0.0906565 0.166919 0.162438 -0.0233146 0.0166141 0.0216528 -0.00709235 -2.20234 1.40516 -7.48927 0.01 
141 1 15 -0.0104758 -0.0692281 0.0609848 0 0 -2.27525 0 0 0 0 0 0 0.01 
142 1 15 -0.0104758 -0.0692281 0.0699848 0 0 -2.27525 0 0 0 0 0 0 0.01 
143 1 15 -0.0104758 -0.0692281 0.0789848 0 0 -2.27525 0 0 0 0 0 0 0.01 
144 1 15 -0.0104758 -0.0692281 0.0879848 0 0 -2.27525 0 0 0 0 0 0 0.01 
145 1 15 -0.0104758 -0.0692281 0.0969848 0 0 -2.27525 0 0 0 0 0 0 0.01 
146 1 15 -0.0104758 -0.0692281 0.105985 0 0 -2.27525 0 0 0 0 0 0 0.01 
147 1 15 -0.0104758 -0.0692281 0.114985 0 0 -2.27525 0 0 0 0 0 0 0.01 
148 1 15 -0.0104758 -0.0692281 0.123985 0 0 -2.27525 0 0 0 0 0 0 0.01 
149 1 15 -0.0104758 -0.0692281 0.132985 0 0 -2.27525 0 0 0 0 0 0 0.01 
150 1 15 -0.0104758 -0.0692281 0.141985 0 0 -2.27525 0 0 0 0 0 0 0.01 
151 1 16 -0.0372023 0.179191 0.0442472 -0.0224797 0.0744216 -0.918362 0 0 0 -0.405795 1.99787 2.60803 0.01 
152 1 16 -0.0373716 0.179053 0.0532445 -0.00414302 0.0776312 -0.917967 0 0 0 -0.405795 1.99787 2.60803 0.01 
153 1 16 -0.0375408 0.178914 0.0622419 0.0141936 0.0808408 -0.917573 0 0 0 -0.405795 1.99787 2.60803 0.01 
154 1 16 -0.0377101 0.178776 0.0712392 0.0325303 0.0840504 -0.917179 0 0 0 -0.405795 1.99787 2.60803 0.01 
155 1 16 -0.0378794 0.178637 0.0802365 0.0508669 0.08726 -0.916784 0 0 0 -0.405795 1.99787 2.60803 0.01 
156 1 16 -0.0380487 0.178499 0.0892339 0.0692035 0.0904696 -0.91639 -0.80217 1.29038 0.729625 -0.405795 1.99787 2.60803 0.01 
157 1 16 -0.0382179 0.17836 0.0982312 0.0875402 0.0936792 -0.915996 0 0 0 -0.405795 1.99787 2.60803 0.01 
158 1 16 -0.0383872 0.178222 0.107229 0.105877 0.0968888 -0.915601 0 0 0 -0.405795 1.99787 2.60803 0.01 
159 1 16 -0.0385565 0.178084 0.116226 0.124213 0.100098 -0.915207 0 0 0 -0.405795 1.99787 2.60803 0.01 
160 1 16 -0.0387258 0.177945 0.125223 0.14255 0.103308 -0.914812 0 0 0 -0.405795 1.99787 2.60803 0.01 
161 1 17 0.0721222 0.0930686 0.01017 -0.0178722 0.0209531 -0.17751 0 0 0 1.00763 0.707376 0.313533 0.01 
162 1 17 0.0723264 0.0927253 0.0191612 -0.0114044 0.0119574 -0.178 0 0 0 1.00763 0.707376 0.313533 0.01 
163 1 17 0.0725305 0.092382 0.0281523 -0.00493666 0.00296163 -0.17849 0 0 0 1.00763 0.707376 0.313533 0.01 
164 1 17 0.0727347 0.0920387 0.0371434 0.00153108 -0.00603411 -0.178981 0 0 0 1.00763 0.707376 0.313533 0.01 
165 1 17 0.0729388 0.0916954 0.0461346 0.00799883 -0.0150298 -0.179471 0 0 0 1.00763 0.707376 0.313533 0.01 
166 1 17 0.073143 0.0913521 0.0551257 0.0144666 -0.0240256 -0.179961 0 0 0 1.00763 0.707376 0.313533 0.01 
167 1 17 0.0733471 0.0910088 0.0641168 0.0209343 -0.0330213 -0.180451 0 0 0 1.00763 0.707376 0.313533 0.01 
168 1 17 0.0735513 0.0906656 0.073108 0.0274021 -0.0420171 -0.180942 0 0 0 1.00763 0.707376 0.313533 0.01 
169 1 17 0.0737554 0.0903223 0.0820991 0.0338698 -0.0510128 -0.181432 0 0 0 1.00763 0.707376 0.313533 0.01 
170 1 17 0.0739596 0.089979 0.0910902 0.0403376 -0.0600086 -0.181922 0 0 0 1.00763 0.707376 0.313533 0.01 
171 1 18 -0.242659 -0.0457697 0.139158 -0.135563 0.195573 -1.58992 0 0 0 5.36661 2.18138 4.26839 0.01 
172 1 18 -0.242267 -0.0446627 0.148081 -0.120823 0.149359 -1.58483 0 0 0 5.36661 2.18138 4.26839 0.01 
173 1 18 -0.241875 -0.0435557 0.157004 -0.106084 0.103146 -1.57975 0 0 0 5.36661 2.18138 4.26839 0.01 
174 1 18 -0.241483 -0.0424487 0.165927 -0.0913442 0.0569319 -1.57466 0 0 0 5.36661 2.18138 4.26839 0.01 
175 1 18 -0.241091 -0.0413418 0.17485 -0.0766048 0.0107182 -1.56958 0 0 0 5.36661 2.18138 4.26839 0.01 
176 1 18 -0.240699 -0.0402348 0.183773 -0.0618653 -0.0354956 -1.56449 0 0 0 5.36661 2.18138 4.26839 0.01 
177 1 18 -0.240307 -0.0391278 0.192696 -0.0471258 -0.0817093 -1.55941 0 0 0 5.36661 2.18138 4.26839 0.01 
178 1 18 -0.239915 -0.0380208 0.201619 -0.0323864 -0.127923 -1.55432 0 0 0 5.36661 2.18138 4.26839 0.01 
179 1 18 -0.239523 -0.0369138 0.210542 -0.0176469 -0.174137 -1.54923 0 0 0 5.36661 2.18138 4.26839 0.01 
180 1 18 -0.239131 -0.0358068 0.219465 -0.00290744 -0.22035 -1.54415 0 0 0 5.36661 2.18138 4.26839 0.01 
181 1 19 0.000526409 0.168009 0.109122 -0.118478 0.226442 0.237788 0.0201043 -0.0144569 0.121307 4.44929 4.31397 -2.42545 0.01 
182 1 19 0.00173717 0.167175 0.118002 -0.0821971 0.183999 0.228854 0 0 0 4.44929 4.31397 -2.42545 0.01 
183 1 19 0.00294793 0.166341 0.126881 -0.045916 0.141557 0.219919 0 0 0 4.44929 4.31397 -2.42545 0.01 
184 1 19 0.00415868 0.165507 0.13576 -0.00963479 0.0991147 0.210985 0 0 0 4.44929 4.31397 -2.42545 0.01 
185 1 19 0.00536944 0.164673 0.144639 0.0266464 0.0566724 0.202051 0 0 0 4.44929 4.31397 -2.42545 0.01 
186 1 19 0.0065802 0.163839 0.153518 0.0629276 0.0142301 0.193117 0 0 0 4.44929 4.31397 -2.42545 0.01 
187 1 19 0.00779096 0.163004 0.162397 0.0992087 -0.0282121 0.184183 0 0 0 4.44929 4.31397 -2.42545 0.01 
188 1 19 0.00900172 0.16217 0.171276 0.13549 -0.0706544 0.175249 0 0 0 4.44929 4.31397 -2.42545 0.01 
189 1 19 0.0102125 0.161336 0.180155 0.171771 -0.113097 0.166315 0 0 0 4.44929 4.31397 -2.42545 0.01 
190 1 19 0.0114232 0.160502 0.189034 0.208052 -0.155539 0.15738 0 0 0 4.44929 4.31397 -2.42545 0.01 
191 1 20 -0.00716141 0.187735 0.00991571 -0.000338518 0.0145775 -0.00556589 0.348552 0.0726665 0.749646 -1.62721 1.28872 5.6649 0.01 
192 1 20 -0.00706418 0.188407 0.0188901 0.00742013 0.0297315 -0.00678467 0 0 0 -1.62721 1.28872 5.6649 0.01 
193 1 20 -0.00696694 0.189079 0.0278644 0.0151788 0.0448854 -0.00800346 0 0 0 -1.62721 1.28872 5.6649 0.01 
194 1 20 -0.00686971 0.189751 0.0368388 0.0229374 0.0600394 -0.00922224 0 0 0 -1.62721 1.28872 5.6649 0.01 
195 1 20 -0.00677248 0.190423 0.0458131 0.0306961 0.0751933 -0.010441 0 0 0 -1.62721 1.28872 5.6649 0.01 
196 1 20 -0.00667525 0.191095 0.0547875 0.0384547 0.0903473 -0.0116598 0 0 0 -1.62721 1.28872 5.6649 0.01 
197 1 20 -0.00657801 0.191767 0.0637618 0.0462134 0.105501 -0.0128786 0 0 0 -1.62721 1.28872 5.6649 0.01 
198 1 20 -0.00648078 0.192439 0.0727362 0.053972 0.120655 -0.0140974 0 0 0 -1.62721 1.28872 5.6649 0.01 
199 1 20 -0.00638355 0.193111 0.0817105 0.0617307 0.135809 -0.0153162 0 0 0 -1.62721 1.28872 5.6649 0.01 
200 1 20 -0.00628632 0.193783 0.0906849 0.0694893 0.150963 -0.016535 0.765181 -0.0928007 -0.356385 -1.62721 1.28872 5.6649 0.01 
201 1 21 0.0183157 0.00468408 0.0099623 -0.0371528 0.0258369 0.0077946 -0.0599751 0.0822227 0.073127 -3.19963 -4.17117 -10.6212 0.01 
202 1 21 0.0173768 0.00594527 0.0188239 -0.0607207 0.0641629 -0.000157025 0 0 0 -3.19963 -4.17117 -10.6212 0.01 
203 1 21 0.0164379 0.00720647 0.0276855 -0.0842886 0.102489 -0.00810865 0 0 0 -3.19963 -4.17117 -10.6212 0.01 
204 1 21 0.015499 0.00846766 0.0365471 -0.107856 0.140815 -0.0160603 0 0 0 -3.19963 -4.17117 -10.6212 0.01 
205 1 21 0.0145601 0.00972885 0.0454087 -0.131424 0.179141 -0.0240119 0 0 0 -3.19963 -4.17117 -10.6212 0.01 
206 1 21 0.0136212 0.01099 0.0542703 -0.154992 0.217467 -0.0319635 0 0 0 -3.19963 -4.17117 -10.6212 0.01 
207 1 21 0.0126823 0.0122512 0.0631319 -0.17856 0.255793 -0.0399152 0.797727 -0.970044 -0.380733 -3.19963 -4.17117 -10.6212 0.01 
208 1 21 0.0117434 0.0135124 0.0719935 -0.202128 0.294119 -0.0478668 0.12453 -1.09203 -0.968051 -3.19963 -4.17117 -10.6212 0.01 
209 1 21 0.0108045 0.0147736 0.0808551 -0.225696 0.332445 -0.0558184 0 0 0 -3.19963 -4.17117 -10.6212 0.01 
210 1 21 0.00986566 0.0160348 0.0897167 -0.249264 0.370771 -0.06377 0 0 0 -3.19963 -4.17117 -10.6212 0.01 
211 1 22 0.00122426 0.208633 0.111001 -0.0109267 0.227963 0.105646 0 0 0 5.07987 -2.25361 4.56702 0.01 
212 1 22 0.00112839 0.206694 0.119789 -0.0218796 0.182882 0.0955835 0 0 0 5.07987 -2.25361 4.56702 0.01 
213 1 22 0.00103252 0.204756 0.128577 -0.0328324 0.137801 0.0855209 0 0 0 5.07987 -2.25361 4.56702 0.01 
214 1 22 0.000936654 0.202818 0.137365 -0.0437852 0.0927197 0.0754583 0 0 0 5.07987 -2.25361 4.56702 0.01 
215 1 22 0.000840787 0.200879 0.146154 -0.0547381 0.0476386 0.0653957 0 0 0 5.07987 -2.25361 4.56702 0.01 
216 1 22 0.00074492 0.198941 0.154942 -0.0656909 0.00255754 0.055333 0 0 0 5.07987 -2.25361 4.56702 0.01 
217 1 22 0.000649053 0.197003 0.16373 -0.0766437 -0.0425236 0.0452704 0 0 0 5.07987 -2.25361 4.56702 0.01 
218 1 22 0.000553186 0.195064 0.172519 -0.0875966 -0.0876047 0.0352078 0 0 0 5.07987 -2.25361 4.56702 0.01 
219 1 22 0.000457318 0.193126 0.181307 -0.0985494 -0.132686 0.0251452 0 0 0 5.07987 -2.25361 4.56702 0.01 
220 1 22 0.000361451 0.191187 0.190095 -0.109502 -0.177767 0.0150826 0 0 0 5.07987 -2.25361 4.56702 0.01 
221 1 23 0.2143 0.0540753 0.124639 0.00833093 -0.0239329 -1.84735 0 0 0 -2.38112 -0.833506 -0.920556 0.01 
222 1 23 0.214296 0.0540852 0.133639 0.000838463 -0.00249878 -1.84738 0 0 0 -2.38112 -0.833506 -0.920556 0.01 
223 1 23 0.214292 0.0540951 0.142639 -0.00665401 0.0189353 -1.8474 0 0 0 -2.38112 -0.833506 -0.920556 0.01 
224 1 23 0.214287 0.0541049 0.151638 -0.0141465 0.0403694 -1.84743 0 0 0 -2.38112 -0.833506 -0.920556 0.01 
225 1 23 0.214283 0.0541148 0.160638 -0.0216389 0.0618035 -1.84746 0 0 0 -2.38112 -0.833506 -0.920556 0.01 
226 1 23 0.214278 0.0541246 0.169638 -0.0291314 0.0832375 -1.84749 0 0 0 -2.38112 -0.833506 -0.920556 0.01 
227 1 23 0.214274 0.0541345 0.178638 -0.0366239 0.104672 -1.84751 0 0 0 -2.38112 -0.833506 -0.920556 0.01 
228 1 23 0.21427 0.0541444 0.187638 -0.0441164 0.126106 -1.84754 0 0 0 -2.38112 -0.833506 -0.920556 0.01 
229 1 23 0.214265 0.0541542 0.196638 -0.0516088 0.14754 -1.84757 0 0 0 -2.38112 -0.833506 -0.920556 0.01 
230 1 23 0.214261 0.0541641 0.205638 -0.0591013 0.168974 -1.84759 0 0 0 -2.38112 -0.833506 -0.920556 0.01 
231 1 24 0.158195 0.0236688 0.00986425 0.0175412 -0.00412761 0.0375863 0.175986 0.203401 0.537934 1.80662 1.12088 5.86962 0.01 
232 1 24 0.158827 0.0217539 0.0186355 0.0386123 -0.0162652 0.0334186 0 0 0 1.80662 1.12088 5.86962 0.01 
233 1 24 0.159458 0.019839 0.0274067 0.0596834 -0.0284027 0.0292509 0 0 0 1.80662 1.12088 5.86962 0.01 
234 1 24 0.16009 0.0179241 0.0361779 0.0807546 -0.0405403 0.0250832 0 0 0 1.80662 1.12088 5.86962 0.01 
235 1 24 0.160722 0.0160092 0.0449491 0.101826 -0.0526779 0.0209155 0 0 0 1.80662 1.12088 5.86962 0.01 
236 1 24 0.161354 0.0140943 0.0537203 0.122897 -0.0648155 0.0167478 0 0 0 1.80662 1.12088 5.86962 0.01 
237 1 24 0.161986 0.0121794 0.0624915 0.143968 -0.076953 0.0125801 0 0 0 1.80662 1.12088 5.86962 0.01 
238 1 24 0.162618 0.0102645 0.0712627 0.165039 -0.0890906 0.00841236 0 0 0 1.80662 1.12088 5.86962 0.01 
239 1 24 0.163249 0.00834963 0.0800339 0.18611 -0.101228 0.00424465 0 0 0 1.80662 1.12088 5.86962 0.01 
240 1 24 0.163881 0.00643474 0.0888051 0.207181 -0.113366 7.69442e-05 0.00797661 0.0191332 0.00746056 1.80662 1.12088 5.86962 0.01 
241 1 25 0.135005 -0.174112 0.111677 -0.0145892 -0.0030383 0.160753 0 0 0 -0.335683 1.46207 -0.00774851 0.01 
242 1 25 0.135208 -0.174065 0.120675 -0.00143375 -1.95363e-05 0.160441 0 0 0 -0.335683 1.46207 -0.00774851 0.01 
243 1 25 0.135411 -0.174018 0.129672 0.0117217 0.00299923 0.160129 0 0 0 -0.335683 1.46207 -0.00774851 0.01 
244 1 25 0.135613 -0.173971 0.13867 0.0248772 0.006018 0.159817 0 0 0 -0.335683 1.46207 -0.00774851 0.01 
245 1 25 0.135816 -0.173924 0.147667 0.0380327 0.00903677 0.159505 0 0 0 -0.335683 1.46207 -0.00774851 0.01 
246 1 25 0.136019 -0.173877 0.156665 0.0511882 0.0120555 0.159193 0 0 0 -0.335683 1.46207 -0.00774851 0.01 
247 1 25 0.136221 -0.17383 0.165663 0.0643437 0.0150743 0.15888 0 0 0 -0.335683 1.46207 -0.00774851 0.01 
248 1 25 0.136424 -0.173783 0.17466 0.0774992 0.0180931 0.158568 0 0 0 -0.335683 1.46207 -0.00774851 0.01 
249 1 25 0.136627 -0.173736 0.183658 0.0906547 0.0211118 0.158256 0 0 0 -0.335683 1.46207 -0.00774851 0.01 
250 1 25 0.13683 -0.173689 0.192655 0.10381 0.0241306 0.157944 0 0 0 -0.335683 1.46207 -0.00774851 0.01 
251 1 26 -0.00895763 -0.169583 0.013526 0.0993732 0.0557955 -1.00121 0 0 0 2.67518 2.34824 7.71998 0.01 
252 1 26 -0.00810323 -0.17042 0.0224461 0.126785 0.0385285 -1.00545 0 0 0 2.67518 2.34824 7.71998 0.01 
253 1 26 -0.00724884 -0.171258 0.0313663 0.154197 0.0212614 -1.0097 0 0 0 2.67518 2.34824 7.71998 0.01 
254 1 26 -0.00639444 -0.172095 0.0402864 0.181609 0.0039944 -1.01395 0.23379 -0.229731 -0.251845 2.67518 2.34824 7.71998 0.01 
255 1 26 -0.00554005 -0.172933 0.0492065 0.209021 -0.0132727 -1.0182 0 0 0 2.67518 2.34824 7.71998 0.01 
256 1 26 -0.00468565 -0.17377 0.0581266 0.236434 -0.0305397 -1.02244 0 0 0 2.67518 2.34824 7.71998 0.01 
257 1 26 -0.00383125 -0.174608 0.0670468 0.263846 -0.0478067 -1.02669 0 0 0 2.67518 2.34824 7.71998 0.01 
258 1 26 -0.00297686 -0.175445 0.0759669 0.291258 -0.0650738 -1.03094 0 0 0 2.67518 2.34824 7.71998 0.01 
259 1 26 -0.00212246 -0.176283 0.084887 0.31867 -0.0823408 -1.03518 0 0 0 2.67518 2.34824 7.71998 0.01 
260 1 26 -0.00126807 -0.17712 0.0938071 0.346082 -0.0996079 -1.03943 0 0 0 2.67518 2.34824 7.71998 0.01 
261 1 27 -0.139769 0.159179 0.109685 0.509547 0.358403 0.387457 0 0 0 9.64923 -5.28359 -10.1546 0.01 
262 1 27 -0.140478 0.157591 0.118515 0.446761 0.280397 0.368384 0 0 0 9.64923 -5.28359 -10.1546 0.01 
263 1 27 -0.141187 0.156002 0.127345 0.383976 0.202391 0.349311 0 0 0 9.64923 -5.28359 -10.1546 0.01 
264 1 27 -0.141896 0.154414 0.136176 0.32119 0.124385 0.330238 0 0 0 9.64923 -5.28359 -10.1546 0.01 
265 1 27 -0.142605 0.152825 0.145006 0.258405 0.0463794 0.311164 0 0 0 9.64923 -5.28359 -10.1546 0.01 
266 1 27 -0.143314 0.151237 0.153836 0.195619 -0.0316265 0.292091 -0.754172 1.50889 -0.747083 9.64923 -5.28359 -10.1546 0.01 
267 1 27 -0.144023 0.149648 0.162666 0.132833 -0.109632 0.273018 0 0 0 9.64923 -5.28359 -10.1546 0.01 
268 1 27 -0.144732 0.14806 0.171497 0.0700477 -0.187638 0.253944 0 0 0 9.64923 -5.28359 -10.1546 0.01 
269 1 27 -0.145441 0.146472 0.180327 0.00726215 -0.265644 0.234871 0 0 0 9.64923 -5.28359 -10.1546 0.01 
270 1 27 -0.14615 0.144883 0.189157 -0.0555234 -0.34365 0.215798 0 0 0 9.64923 -5.28359 -10.1546 0.01 
271 1 28 0.014244 -0.167907 0.108542 0.00431736 0.0257057 0.0528748 0 0 0 -5.22321 -4.63918 -1.82741 0.01 
272 1 28 0.0129687 -0.166377 0.117319 -0.0336042 0.0738794 0.0389674 0 0 0 -5.22321 -4.63918 -1.82741 0.01 
273 1 28 0.0116934 -0.164847 0.126096 -0.0715257 0.122053 0.02506 0 0 0 -5.22321 -4.63918 -1.82741 0.01 
274 1 28 0.0104181 -0.163317 0.134872 -0.109447 0.170227 0.0111526 0 0 0 -5.22321 -4.63918 -1.82741 0.01 
275 1 28 0.00914284 -0.161787 0.143649 -0.147369 0.218401 -0.00275476 0 0 0 -5.22321 -4.63918 -1.82741 0.01 
276 1 28 0.00786755 -0.160257 0.152426 -0.18529 0.266574 -0.0166621 0 0 0 -5.22321 -4.63918 -1.82741 0.01 
277 1 28 0.00659226 -0.158727 0.161203 -0.223212 0.314748 -0.0305695 0 0 0 -5.22321 -4.63918 -1.82741 0.01 