ITEM: TIMESTEP
36000
ITEM: NUMBER OF ATOMS
6300
ITEM: BOX BOUNDS mm mm mm
-0.372665 0.36894
-0.352566 0.381983
0 0.5
ITEM: ATOMS id type mol x y z vx vy vz fx fy fz omegax omegay omegaz radius 
1 1 1 -0.145792 -0.112536 0.0820615 -0.372361 -0.03222 -0.0938022 0.383657 0.215665 0.38733 6.9528 3.11209 -1.43595 0.01 
2 1 1 -0.14559 -0.119409 0.0878687 -0.364157 -0.0728863 -0.142217 0.237272 0.201217 0.287921 6.9528 3.11209 -1.43595 0.01 
3 1 1 -0.145388 -0.126282 0.0936758 -0.355954 -0.113553 -0.190632 -0.401776 -0.162422 0.334548 6.9528 3.11209 -1.43595 0.01 
4 1 1 -0.145186 -0.133155 0.099483 -0.347751 -0.154219 -0.239047 0.0796504 -0.0347293 -0.244127 6.9528 3.11209 -1.43595 0.01 
5 1 1 -0.144984 -0.140028 0.10529 -0.339548 -0.194885 -0.287461 0 0 0 6.9528 3.11209 -1.43595 0.01 
6 1 1 -0.144782 -0.146901 0.111097 -0.331344 -0.235552 -0.335876 0 0 0 6.9528 3.11209 -1.43595 0.01 
7 1 1 -0.144579 -0.153773 0.116904 -0.323141 -0.276218 -0.384291 0 0 0 6.9528 3.11209 -1.43595 0.01 
8 1 1 -0.144377 -0.160646 0.122712 -0.314938 -0.316884 -0.432706 0 0 0 6.9528 3.11209 -1.43595 0.01 
9 1 1 -0.144175 -0.167519 0.128519 -0.306734 -0.35755 -0.48112 0 0 0 6.9528 3.11209 -1.43595 0.01 
10 1 1 -0.143973 -0.174392 0.134326 -0.298531 -0.398217 -0.529535 0 0 0 6.9528 3.11209 -1.43595 0.01 
11 1 2 -0.0216214 -0.129201 0.0241845 0.0361121 -0.0131188 -0.0600001 -0.348099 -0.28634 0.289141 1.66994 -1.90905 2.43137 0.01 
12 1 2 -0.0245558 -0.131207 0.0324528 0.0252046 -0.0340612 -0.0689518 0.724295 0.917665 1.808 1.66994 -1.90905 2.43137 0.01 
13 1 2 -0.0274903 -0.133213 0.0407211 0.0142971 -0.0550035 -0.0779035 0 0 0 1.66994 -1.90905 2.43137 0.01 
14 1 2 -0.0304247 -0.135219 0.0489895 0.00338955 -0.0759458 -0.0868552 0 0 0 1.66994 -1.90905 2.43137 0.01 
15 1 2 -0.0333591 -0.137225 0.0572578 -0.00751798 -0.0968881 -0.0958069 -0.821368 -0.91951 -1.69995 1.66994 -1.90905 2.43137 0.01 
16 1 2 -0.0362935 -0.139231 0.0655262 -0.0184255 -0.11783 -0.104759 0.0227441 0.00268785 -0.0243956 1.66994 -1.90905 2.43137 0.01 
17 1 2 -0.0392279 -0.141237 0.0737945 -0.029333 -0.138773 -0.11371 -0.00175561 0.0576518 0.00963643 1.66994 -1.90905 2.43137 0.01 
18 1 2 -0.0421623 -0.143243 0.0820629 -0.0402406 -0.159715 -0.122662 0 0 0 1.66994 -1.90905 2.43137 0.01 
19 1 2 -0.0450967 -0.145249 0.0903312 -0.0511481 -0.180657 -0.131614 0 0 0 1.66994 -1.90905 2.43137 0.01 
20 1 2 -0.0480311 -0.147255 0.0985996 -0.0620556 -0.2016 -0.140565 0.0695332 0.199755 0.220533 1.66994 -1.90905 2.43137 0.01 
21 1 3 -0.0277809 -0.0427105 0.00998111 -0.014117 -0.0294798 0.0126735 -0.0264824 0.0378652 -0.0924141 -4.5178 -6.90922 5.80138 0.01 
22 1 3 -0.0317912 -0.0481385 0.0159354 -0.0237671 -0.0258448 0.00948771 0 0 0 -4.5178 -6.90922 5.80138 0.01 
23 1 3 -0.0358016 -0.0535665 0.0218898 -0.0334172 -0.0222098 0.00630189 0 0 0 -4.5178 -6.90922 5.80138 0.01 
24 1 3 -0.0398119 -0.0589944 0.0278441 -0.0430673 -0.0185748 0.00311606 0 0 0 -4.5178 -6.90922 5.80138 0.01 
25 1 3 -0.0438223 -0.0644224 0.0337985 -0.0527174 -0.0149397 -6.9761e-05 0 0 0 -4.5178 -6.90922 5.80138 0.01 
26 1 3 -0.0478326 -0.0698504 0.0397528 -0.0623675 -0.0113047 -0.00325558 0 0 0 -4.5178 -6.90922 5.80138 0.01 
27 1 3 -0.051843 -0.0752784 0.0457071 -0.0720175 -0.00766973 -0.00644141 0.00237944 0.601195 0.535988 -4.5178 -6.90922 5.80138 0.01 
28 1 3 -0.0558533 -0.0807064 0.0516615 -0.0816676 -0.00403473 -0.00962723 0.127277 -0.0830335 0.0141862 -4.5178 -6.90922 5.80138 0.01 
29 1 3 -0.0598637 -0.0861343 0.0576158 -0.0913177 -0.000399723 -0.0128131 0.0598 -0.0323345 0.0116988 -4.5178 -6.90922 5.80138 0.01 
30 1 3 -0.063874 -0.0915623 0.0635702 -0.100968 0.00323528 -0.0159989 -0.583176 -0.693721 -0.672117 -4.5178 -6.90922 5.80138 0.01 
31 1 4 -0.0885827 0.12248 0.00987083 -0.0694468 0.0574675 0.000612974 -2.01191 -0.237898 -2.34506 0.334278 -5.10339 -3.87332 0.01 
32 1 4 -0.0914306 0.128446 0.0159778 -0.0775042 0.0664571 -0.0119269 -0.112243 0.740428 -1.29797 0.334278 -5.10339 -3.87332 0.01 
33 1 4 -0.0942785 0.134413 0.0220847 -0.0855615 0.0754467 -0.0244667 1.58886 -1.08126 3.07979 0.334278 -5.10339 -3.87332 0.01 
34 1 4 -0.0971265 0.140379 0.0281916 -0.0936189 0.0844363 -0.0370065 1.14399 -0.830751 2.18712 0.334278 -5.10339 -3.87332 0.01 
35 1 4 -0.0999744 0.146345 0.0342986 -0.101676 0.0934259 -0.0495463 0.46416 -0.331081 0.808301 0.334278 -5.10339 -3.87332 0.01 
36 1 4 -0.102822 0.152311 0.0404055 -0.109734 0.102415 -0.0620861 0.0298452 -0.00470362 0.0093381 0.334278 -5.10339 -3.87332 0.01 
37 1 4 -0.10567 0.158277 0.0465124 -0.117791 0.111405 -0.074626 0 0 0 0.334278 -5.10339 -3.87332 0.01 
38 1 4 -0.108518 0.164243 0.0526194 -0.125848 0.120395 -0.0871658 0 0 0 0.334278 -5.10339 -3.87332 0.01 
39 1 4 -0.111366 0.170209 0.0587263 -0.133906 0.129384 -0.0997056 -1.15234 1.03781 -1.49523 0.334278 -5.10339 -3.87332 0.01 
40 1 4 -0.114214 0.176175 0.0648333 -0.141963 0.138374 -0.112245 -0.0384155 0.0120925 -0.240126 0.334278 -5.10339 -3.87332 0.01 
41 1 5 0.0797896 -0.135559 0.00979931 0.0113771 -0.00263944 0.0153236 -0.493276 -0.0159727 1.96107 0.565676 1.56391 -4.00583 0.01 
42 1 5 0.0810537 -0.134764 0.0186746 0.0284404 -0.0127237 0.0137962 0 0 0 0.565676 1.56391 -4.00583 0.01 
43 1 5 0.0823178 -0.13397 0.0275499 0.0455037 -0.022808 0.0122688 0 0 0 0.565676 1.56391 -4.00583 0.01 
44 1 5 0.0835819 -0.133175 0.0364252 0.062567 -0.0328922 0.0107414 0.884992 0.207171 -0.679649 0.565676 1.56391 -4.00583 0.01 
45 1 5 0.084846 -0.13238 0.0453004 0.0796303 -0.0429765 0.00921393 0 0 0 0.565676 1.56391 -4.00583 0.01 
46 1 5 0.0861101 -0.131586 0.0541757 0.0966936 -0.0530608 0.0076865 0 0 0 0.565676 1.56391 -4.00583 0.01 
47 1 5 0.0873742 -0.130791 0.063051 0.113757 -0.063145 0.00615907 0 0 0 0.565676 1.56391 -4.00583 0.01 
48 1 5 0.0886383 -0.129997 0.0719263 0.13082 -0.0732293 0.00463165 0 0 0 0.565676 1.56391 -4.00583 0.01 
49 1 5 0.0899023 -0.129202 0.0808016 0.147884 -0.0833135 0.00310422 0 0 0 0.565676 1.56391 -4.00583 0.01 
50 1 5 0.0911664 -0.128407 0.0896769 0.164947 -0.0933978 0.0015768 -0.396245 -0.048637 -0.572829 0.565676 1.56391 -4.00583 0.01 
51 1 6 0.192259 -0.0386934 0.0225222 0.0674203 -0.157551 -0.0685436 0 0 0 13.9488 9.82697 -3.65726 0.01 
52 1 6 0.185329 -0.0443567 0.0234699 0.0560211 -0.145424 -0.0794364 0 0 0 13.9488 9.82697 -3.65726 0.01 
53 1 6 0.178399 -0.05002 0.0244176 0.044622 -0.133298 -0.0903292 0 0 0 13.9488 9.82697 -3.65726 0.01 
54 1 6 0.171468 -0.0556833 0.0253653 0.0332229 -0.121171 -0.101222 0 0 0 13.9488 9.82697 -3.65726 0.01 
55 1 6 0.164538 -0.0613466 0.026313 0.0218238 -0.109045 -0.112115 0 0 0 13.9488 9.82697 -3.65726 0.01 
56 1 6 0.157608 -0.0670099 0.0272607 0.0104246 -0.0969184 -0.123008 0 0 0 13.9488 9.82697 -3.65726 0.01 
57 1 6 0.150678 -0.0726732 0.0282084 -0.000974494 -0.0847919 -0.1339 0 0 0 13.9488 9.82697 -3.65726 0.01 
58 1 6 0.143747 -0.0783365 0.0291561 -0.0123736 -0.0726654 -0.144793 -0.216669 0.320726 0.397131 13.9488 9.82697 -3.65726 0.01 
59 1 6 0.136817 -0.0839998 0.0301038 -0.0237727 -0.0605388 -0.155686 0 0 0 13.9488 9.82697 -3.65726 0.01 
60 1 6 0.129887 -0.0896631 0.0310515 -0.0351719 -0.0484123 -0.166579 0 0 0 13.9488 9.82697 -3.65726 0.01 
61 1 7 -0.0445308 0.224561 0.00995757 -0.0777264 0.164173 -0.0118132 0.0765689 -0.192786 0.41487 -3.57112 -3.02937 0.0722849 0.01 
62 1 7 -0.0428273 0.230432 0.0165628 -0.0981604 0.187884 -0.0276192 0.181458 0.226066 -0.401084 -3.57112 -3.02937 0.0722849 0.01 
63 1 7 -0.0411239 0.236303 0.0231679 -0.118594 0.211595 -0.0434251 0.334143 0.382169 -0.902233 -3.57112 -3.02937 0.0722849 0.01 
64 1 7 -0.0394204 0.242174 0.0297731 -0.139028 0.235306 -0.0592311 0.0845167 0.0496175 -0.358511 -3.57112 -3.02937 0.0722849 0.01 
65 1 7 -0.0377169 0.248045 0.0363783 -0.159462 0.259017 -0.0750371 -0.970162 -0.00735147 1.19446 -3.57112 -3.02937 0.0722849 0.01 
66 1 7 -0.0360135 0.253916 0.0429835 -0.179896 0.282729 -0.090843 -0.577267 -0.772119 1.57326 -3.57112 -3.02937 0.0722849 0.01 
67 1 7 -0.03431 0.259787 0.0495887 -0.20033 0.30644 -0.106649 -0.17252 -0.300108 0.286073 -3.57112 -3.02937 0.0722849 0.01 
68 1 7 -0.0326066 0.265659 0.0561939 -0.220764 0.330151 -0.122455 0 0 0 -3.57112 -3.02937 0.0722849 0.01 
69 1 7 -0.0309031 0.27153 0.0627991 -0.241198 0.353862 -0.138261 0.440637 0.553931 -0.947691 -3.57112 -3.02937 0.0722849 0.01 
70 1 7 -0.0291997 0.277401 0.0694043 -0.261632 0.377573 -0.154067 0 0 0 -3.57112 -3.02937 0.0722849 0.01 
71 1 8 0.146936 -0.181357 0.091335 0.214564 -0.428708 -0.228074 0.0740024 0.154749 0.253227 4.96712 6.49128 1.05577 0.01 
72 1 8 0.155001 -0.179129 0.0946502 0.233731 -0.43666 -0.269355 0 0 0 4.96712 6.49128 1.05577 0.01 
73 1 8 0.163066 -0.1769 0.0979654 0.252897 -0.444612 -0.310635 0 0 0 4.96712 6.49128 1.05577 0.01 
74 1 8 0.171131 -0.174671 0.101281 0.272064 -0.452564 -0.351916 0 0 0 4.96712 6.49128 1.05577 0.01 
75 1 8 0.179196 -0.172442 0.104596 0.29123 -0.460516 -0.393196 0 0 0 4.96712 6.49128 1.05577 0.01 
76 1 8 0.18726 -0.170213 0.107911 0.310397 -0.468468 -0.434477 0 0 0 4.96712 6.49128 1.05577 0.01 
77 1 8 0.195325 -0.167985 0.111226 0.329563 -0.47642 -0.475757 0 0 0 4.96712 6.49128 1.05577 0.01 
78 1 8 0.20339 -0.165756 0.114541 0.34873 -0.484373 -0.517038 0 0 0 4.96712 6.49128 1.05577 0.01 
79 1 8 0.211455 -0.163527 0.117856 0.367897 -0.492325 -0.558318 0 0 0 4.96712 6.49128 1.05577 0.01 
80 1 8 0.21952 -0.161298 0.121172 0.387063 -0.500277 -0.599599 0 0 0 4.96712 6.49128 1.05577 0.01 
81 1 9 -0.133044 0.0319758 0.0574679 -0.0414371 -0.163207 -0.336011 0 0 0 -1.07762 0.570752 2.87666 0.01 
82 1 9 -0.126624 0.0328841 0.0637101 -0.0404872 -0.138014 -0.340654 0 0 0 -1.07762 0.570752 2.87666 0.01 
83 1 9 -0.120205 0.0337924 0.0699524 -0.0395373 -0.11282 -0.345296 0 0 0 -1.07762 0.570752 2.87666 0.01 
84 1 9 -0.113785 0.0347007 0.0761946 -0.0385874 -0.087627 -0.349939 0 0 0 -1.07762 0.570752 2.87666 0.01 
85 1 9 -0.107366 0.035609 0.0824368 -0.0376376 -0.0624336 -0.354582 0 0 0 -1.07762 0.570752 2.87666 0.01 
86 1 9 -0.100946 0.0365174 0.0886791 -0.0366877 -0.0372403 -0.359224 0 0 0 -1.07762 0.570752 2.87666 0.01 
87 1 9 -0.0945268 0.0374257 0.0949213 -0.0357378 -0.0120469 -0.363867 0 0 0 -1.07762 0.570752 2.87666 0.01 
88 1 9 -0.0881073 0.038334 0.101164 -0.0347879 0.0131464 -0.36851 0 0 0 -1.07762 0.570752 2.87666 0.01 
89 1 9 -0.0816878 0.0392423 0.107406 -0.0338381 0.0383398 -0.373153 0 0 0 -1.07762 0.570752 2.87666 0.01 
90 1 9 -0.0752684 0.0401506 0.113648 -0.0328882 0.0635331 -0.377795 0 0 0 -1.07762 0.570752 2.87666 0.01 
91 1 10 0.072214 0.251246 0.0928007 0.19123 0.578306 -0.319099 0.00982632 0.0661607 0.0810057 6.42844 -10.084 -4.7986 0.01 
92 1 10 0.0655858 0.254728 0.0977952 0.157572 0.578006 -0.363556 0 0 0 6.42844 -10.084 -4.7986 0.01 
93 1 10 0.0589576 0.258209 0.10279 0.123915 0.577705 -0.408013 0 0 0 6.42844 -10.084 -4.7986 0.01 
94 1 10 0.0523294 0.261691 0.107784 0.0902577 0.577405 -0.45247 0 0 0 6.42844 -10.084 -4.7986 0.01 
95 1 10 0.0457012 0.265173 0.112779 0.0566004 0.577104 -0.496927 0 0 0 6.42844 -10.084 -4.7986 0.01 
96 1 10 0.039073 0.268654 0.117773 0.0229431 0.576803 -0.541385 0 0 0 6.42844 -10.084 -4.7986 0.01 
97 1 10 0.0324448 0.272136 0.122768 -0.0107142 0.576503 -0.585842 0 0 0 6.42844 -10.084 -4.7986 0.01 
98 1 10 0.0258166 0.275618 0.127762 -0.0443715 0.576202 -0.630299 0 0 0 6.42844 -10.084 -4.7986 0.01 
99 1 10 0.0191884 0.279099 0.132757 -0.0780288 0.575901 -0.674756 0 0 0 6.42844 -10.084 -4.7986 0.01 
100 1 10 0.0125601 0.282581 0.137751 -0.111686 0.575601 -0.719213 0 0 0 6.42844 -10.084 -4.7986 0.01 
101 1 11 -0.245907 -0.0863427 0.0125795 -0.0781287 -0.120753 0.0453259 0.899168 -0.819171 -0.496042 4.03785 1.50082 -7.57012 0.01 
102 1 11 -0.246448 -0.0930425 0.0185644 -0.119865 -0.140822 0.0190855 0 0 0 4.03785 1.50082 -7.57012 0.01 
103 1 11 -0.246989 -0.0997423 0.0245494 -0.161601 -0.160891 -0.00715504 -0.268799 0.343238 1.37857 4.03785 1.50082 -7.57012 0.01 
104 1 11 -0.24753 -0.106442 0.0305343 -0.203337 -0.18096 -0.0333955 0 0 0 4.03785 1.50082 -7.57012 0.01 
105 1 11 -0.248072 -0.113142 0.0365193 -0.245073 -0.201029 -0.059636 -2.22158 1.60788 -0.294621 4.03785 1.50082 -7.57012 0.01 
106 1 11 -0.248613 -0.119842 0.0425042 -0.286809 -0.221097 -0.0858765 0 0 0 4.03785 1.50082 -7.57012 0.01 
107 1 11 -0.249154 -0.126542 0.0484892 -0.328545 -0.241166 -0.112117 1.47653 -1.57638 0.510799 4.03785 1.50082 -7.57012 0.01 
108 1 11 -0.249695 -0.133241 0.0544741 -0.370281 -0.261235 -0.138357 0 0 0 4.03785 1.50082 -7.57012 0.01 
109 1 11 -0.250237 -0.139941 0.0604591 -0.412017 -0.281304 -0.164598 0 0 0 4.03785 1.50082 -7.57012 0.01 
110 1 11 -0.250778 -0.146641 0.066444 -0.453753 -0.301373 -0.190838 0 0 0 4.03785 1.50082 -7.57012 0.01 
111 1 12 0.120171 0.0444131 0.0509112 0.0248181 0.0350288 -0.0598809 -0.230896 0.785761 0.836737 -1.36101 -2.06532 -12.5957 0.01 
112 1 12 0.121656 0.0483018 0.0588906 0.0573188 0.0271753 -0.0621049 0 0 0 -1.36101 -2.06532 -12.5957 0.01 
113 1 12 0.123142 0.0521905 0.06687 0.0898195 0.0193217 -0.064329 0.512087 0.01374 -0.131656 -1.36101 -2.06532 -12.5957 0.01 
114 1 12 0.124628 0.0560792 0.0748494 0.12232 0.0114682 -0.0665531 -0.553445 -0.179041 -0.0160349 -1.36101 -2.06532 -12.5957 0.01 
115 1 12 0.126114 0.0599679 0.0828288 0.154821 0.00361465 -0.0687772 0.178464 -0.250558 -0.104501 -1.36101 -2.06532 -12.5957 0.01 
116 1 12 0.127599 0.0638566 0.0908081 0.187322 -0.00423889 -0.0710012 0 0 0 -1.36101 -2.06532 -12.5957 0.01 
117 1 12 0.129085 0.0677452 0.0987875 0.219822 -0.0120924 -0.0732253 0.0150364 -0.0144092 -0.00507635 -1.36101 -2.06532 -12.5957 0.01 
118 1 12 0.130571 0.0716339 0.106767 0.252323 -0.019946 -0.0754494 0 0 0 -1.36101 -2.06532 -12.5957 0.01 
119 1 12 0.132056 0.0755226 0.114746 0.284824 -0.0277995 -0.0776735 0 0 0 -1.36101 -2.06532 -12.5957 0.01 
120 1 12 0.133542 0.0794113 0.122726 0.317324 -0.0356531 -0.0798975 0 0 0 -1.36101 -2.06532 -12.5957 0.01 
121 1 13 -0.000187261 0.289221 0.0671569 -0.021222 0.172468 -0.106062 -1.07549 -0.85879 1.34137 -1.70391 -5.85388 4.57457 0.01 
122 1 13 -0.00406478 0.284241 0.0735723 -0.0359925 0.165661 -0.120274 0 0 0 -1.70391 -5.85388 4.57457 0.01 
123 1 13 -0.0079423 0.27926 0.0799877 -0.050763 0.158855 -0.134486 0 0 0 -1.70391 -5.85388 4.57457 0.01 
124 1 13 -0.0118198 0.274279 0.0864031 -0.0655336 0.152048 -0.148698 0 0 0 -1.70391 -5.85388 4.57457 0.01 
125 1 13 -0.0156973 0.269298 0.0928185 -0.0803041 0.145241 -0.16291 0 0 0 -1.70391 -5.85388 4.57457 0.01 
126 1 13 -0.0195749 0.264318 0.0992339 -0.0950746 0.138434 -0.177122 0 0 0 -1.70391 -5.85388 4.57457 0.01 
127 1 13 -0.0234524 0.259337 0.105649 -0.109845 0.131628 -0.191334 0 0 0 -1.70391 -5.85388 4.57457 0.01 
128 1 13 -0.0273299 0.254356 0.112065 -0.124616 0.124821 -0.205546 0 0 0 -1.70391 -5.85388 4.57457 0.01 
129 1 13 -0.0312074 0.249376 0.11848 -0.139386 0.118014 -0.219758 0 0 0 -1.70391 -5.85388 4.57457 0.01 
130 1 13 -0.0350849 0.244395 0.124896 -0.154157 0.111208 -0.233969 0 0 0 -1.70391 -5.85388 4.57457 0.01 
131 1 14 -0.0474607 0.127127 0.011794 -0.019177 0.00454147 0.00481246 1.53504 1.10942 -3.23187 -2.3388 0.00702088 2.91369 0.01 
132 1 14 -0.0464669 0.13334 0.0182289 -0.0372354 0.022487 -0.00972616 0 0 0 -2.3388 0.00702088 2.91369 0.01 
133 1 14 -0.0454732 0.139553 0.0246637 -0.0552938 0.0404325 -0.0242648 -1.54319 -0.92283 4.62114 -2.3388 0.00702088 2.91369 0.01 
134 1 14 -0.0444794 0.145767 0.0310986 -0.0733522 0.0583779 -0.0388034 -0.553718 0.0238832 0.179598 -2.3388 0.00702088 2.91369 0.01 
135 1 14 -0.0434856 0.15198 0.0375335 -0.0914106 0.0763234 -0.053342 -0.045923 0.0334926 -0.0839095 -2.3388 0.00702088 2.91369 0.01 
136 1 14 -0.0424918 0.158193 0.0439683 -0.109469 0.0942689 -0.0678806 0 0 0 -2.3388 0.00702088 2.91369 0.01 
137 1 14 -0.041498 0.164407 0.0504032 -0.127527 0.112214 -0.0824193 0 0 0 -2.3388 0.00702088 2.91369 0.01 
138 1 14 -0.0405042 0.17062 0.056838 -0.145586 0.13016 -0.0969579 0 0 0 -2.3388 0.00702088 2.91369 0.01 
139 1 14 -0.0395104 0.176833 0.0632729 -0.163644 0.148105 -0.111497 0 0 0 -2.3388 0.00702088 2.91369 0.01 
140 1 14 -0.0385166 0.183046 0.0697078 -0.181703 0.166051 -0.126035 0.381934 0.101189 -1.31753 -2.3388 0.00702088 2.91369 0.01 
141 1 15 -0.0086512 -0.0603296 0.00986448 -0.00773666 -0.0253596 0.0107957 -0.412455 -0.408308 0.0197656 1.01728 -1.81434 1.7814 0.01 
142 1 15 -0.0128611 -0.0638494 0.016998 -0.014409 -0.040116 -0.000423114 -0.249753 -0.516606 -0.552267 1.01728 -1.81434 1.7814 0.01 
143 1 15 -0.0170709 -0.0673693 0.0241316 -0.0210813 -0.0548723 -0.011642 -0.0186209 -0.0354289 -0.0349166 1.01728 -1.81434 1.7814 0.01 
144 1 15 -0.0212808 -0.0708892 0.0312651 -0.0277537 -0.0696286 -0.0228608 0.72962 1.01959 1.54365 1.01728 -1.81434 1.7814 0.01 
145 1 15 -0.0254907 -0.0744091 0.0383987 -0.034426 -0.0843849 -0.0340797 0.34062 0.485537 0.630883 1.01728 -1.81434 1.7814 0.01 
146 1 15 -0.0297006 -0.0779289 0.0455322 -0.0410984 -0.0991412 -0.0452985 0 0 0 1.01728 -1.81434 1.7814 0.01 
147 1 15 -0.0339104 -0.0814488 0.0526657 -0.0477707 -0.113898 -0.0565174 -0.0719167 -0.0246034 -0.0541527 1.01728 -1.81434 1.7814 0.01 
148 1 15 -0.0381203 -0.0849687 0.0597993 -0.054443 -0.128654 -0.0677362 -0.322383 0.0153816 -0.159365 1.01728 -1.81434 1.7814 0.01 
149 1 15 -0.0423302 -0.0884886 0.0669328 -0.0611154 -0.14341 -0.0789551 -0.424122 -0.0954095 -0.280034 1.01728 -1.81434 1.7814 0.01 
150 1 15 -0.04654 -0.0920085 0.0740664 -0.0677877 -0.158167 -0.0901739 0.158924 0.0742203 -0.19963 1.01728 -1.81434 1.7814 0.01 
151 1 16 -0.0459508 0.182425 0.0136469 -0.169748 0.131673 0.027628 0 0 0 -1.49681 4.65258 2.9951 0.01 
152 1 16 -0.044342 0.189397 0.0191062 -0.16523 0.144664 0.00970735 0 0 0 -1.49681 4.65258 2.9951 0.01 
153 1 16 -0.0427332 0.196369 0.0245655 -0.160711 0.157654 -0.00821333 -0.600237 0.0221894 1.21499 -1.49681 4.65258 2.9951 0.01 
154 1 16 -0.0411244 0.203341 0.0300249 -0.156193 0.170644 -0.026134 0 0 0 -1.49681 4.65258 2.9951 0.01 
155 1 16 -0.0395156 0.210313 0.0354842 -0.151674 0.183634 -0.0440547 0.268378 0.17475 -0.754679 -1.49681 4.65258 2.9951 0.01 
156 1 16 -0.0379068 0.217285 0.0409436 -0.147156 0.196624 -0.0619754 0 0 0 -1.49681 4.65258 2.9951 0.01 
157 1 16 -0.0362979 0.224257 0.0464029 -0.142637 0.209614 -0.079896 0 0 0 -1.49681 4.65258 2.9951 0.01 
158 1 16 -0.0346891 0.231229 0.0518622 -0.138119 0.222604 -0.0978167 0 0 0 -1.49681 4.65258 2.9951 0.01 
159 1 16 -0.0330803 0.238201 0.0573216 -0.1336 0.235594 -0.115737 0 0 0 -1.49681 4.65258 2.9951 0.01 
160 1 16 -0.0314715 0.245173 0.0627809 -0.129082 0.248585 -0.133658 0.00686237 -0.115822 0.267075 -1.49681 4.65258 2.9951 0.01 
161 1 17 0.0750647 0.089059 0.00991495 0.0163983 -0.00786515 0.000243944 0.285065 0.034515 0.650814 1.37976 1.66215 4.55604 0.01 
162 1 17 0.0791863 0.0873817 0.017738 0.0370433 0.000118885 -0.00892099 0.0433572 0.0331729 0.0293594 1.37976 1.66215 4.55604 0.01 
163 1 17 0.0833078 0.0857044 0.025561 0.0576882 0.00810292 -0.0180859 0 0 0 1.37976 1.66215 4.55604 0.01 
164 1 17 0.0874293 0.0840271 0.033384 0.0783332 0.016087 -0.0272509 0 0 0 1.37976 1.66215 4.55604 0.01 
165 1 17 0.0915509 0.0823498 0.041207 0.0989782 0.024071 -0.0364158 0 0 0 1.37976 1.66215 4.55604 0.01 
166 1 17 0.0956724 0.0806725 0.04903 0.119623 0.032055 -0.0455807 0 0 0 1.37976 1.66215 4.55604 0.01 
167 1 17 0.099794 0.0789951 0.056853 0.140268 0.0400391 -0.0547457 0.194026 -0.0341924 -0.133515 1.37976 1.66215 4.55604 0.01 
168 1 17 0.103916 0.0773178 0.064676 0.160913 0.0480231 -0.0639106 0 0 0 1.37976 1.66215 4.55604 0.01 
169 1 17 0.108037 0.0756405 0.072499 0.181558 0.0560071 -0.0730755 0 0 0 1.37976 1.66215 4.55604 0.01 
170 1 17 0.112159 0.0739632 0.080322 0.202203 0.0639912 -0.0822405 -0.130555 0.281083 0.0340881 1.37976 1.66215 4.55604 0.01 
171 1 18 -0.32717 -0.0430831 0.0100598 -0.0153502 0.0269243 -0.156559 0 0 0 -2.65464 -5.92815 -3.70202 0.01 
172 1 18 -0.325206 -0.0404426 0.0184366 -0.0552339 0.0418908 -0.151926 0 0 0 -2.65464 -5.92815 -3.70202 0.01 
173 1 18 -0.323242 -0.0378022 0.0268134 -0.0951177 0.0568573 -0.147292 0 0 0 -2.65464 -5.92815 -3.70202 0.01 
174 1 18 -0.321278 -0.0351617 0.0351902 -0.135001 0.0718238 -0.142659 0 0 0 -2.65464 -5.92815 -3.70202 0.01 
175 1 18 -0.319314 -0.0325212 0.043567 -0.174885 0.0867903 -0.138025 0 0 0 -2.65464 -5.92815 -3.70202 0.01 
176 1 18 -0.31735 -0.0298807 0.0519437 -0.214769 0.101757 -0.133392 0 0 0 -2.65464 -5.92815 -3.70202 0.01 
177 1 18 -0.315386 -0.0272403 0.0603205 -0.254653 0.116723 -0.128758 0 0 0 -2.65464 -5.92815 -3.70202 0.01 
178 1 18 -0.313422 -0.0245998 0.0686973 -0.294537 0.13169 -0.124125 0 0 0 -2.65464 -5.92815 -3.70202 0.01 
179 1 18 -0.311458 -0.0219593 0.0770741 -0.33442 0.146656 -0.119491 0 0 0 -2.65464 -5.92815 -3.70202 0.01 
180 1 18 -0.309494 -0.0193189 0.0854509 -0.374304 0.161623 -0.114858 0 0 0 -2.65464 -5.92815 -3.70202 0.01 
181 1 19 0.0160624 0.221879 0.082992 -0.0411801 0.2219 -0.226698 -0.343683 -0.601768 2.13005 -0.520595 12.8657 -8.51153 0.01 
182 1 19 0.0162277 0.214814 0.0885648 -0.0296172 0.223394 -0.225146 0.986931 0.86385 0.742826 -0.520595 12.8657 -8.51153 0.01 
183 1 19 0.0163929 0.207749 0.0941376 -0.0180543 0.224889 -0.223595 0 0 0 -0.520595 12.8657 -8.51153 0.01 
184 1 19 0.0165582 0.200684 0.0997104 -0.00649137 0.226384 -0.222043 -0.179884 -1.18158 -1.93992 -0.520595 12.8657 -8.51153 0.01 
185 1 19 0.0167235 0.193619 0.105283 0.00507153 0.227878 -0.220491 0 0 0 -0.520595 12.8657 -8.51153 0.01 
186 1 19 0.0168887 0.186554 0.110856 0.0166344 0.229373 -0.218939 -1.44315 0.291631 -1.33405 -0.520595 12.8657 -8.51153 0.01 
187 1 19 0.017054 0.179488 0.116429 0.0281973 0.230867 -0.217387 0 0 0 -0.520595 12.8657 -8.51153 0.01 
188 1 19 0.0172192 0.172423 0.122002 0.0397602 0.232362 -0.215835 0 0 0 -0.520595 12.8657 -8.51153 0.01 
189 1 19 0.0173845 0.165358 0.127574 0.0513231 0.233856 -0.214283 0.202678 0.134707 0.4159 -0.520595 12.8657 -8.51153 0.01 
190 1 19 0.0175498 0.158293 0.133147 0.062886 0.235351 -0.212732 0.111957 0.284914 0.64139 -0.520595 12.8657 -8.51153 0.01 
191 1 20 -0.00693646 0.194557 0.0128649 -0.0187224 0.0258697 0.000897932 0.119306 0.529513 -1.60217 -2.25075 -4.06826 -3.13742 0.01 
192 1 20 -0.0049155 0.201824 0.0177749 -0.015898 0.0305802 -0.00723624 -0.110902 -0.10199 0.122233 -2.25075 -4.06826 -3.13742 0.01 
193 1 20 -0.00289453 0.20909 0.0226849 -0.0130737 0.0352907 -0.0153704 -0.182311 -0.796187 1.44172 -2.25075 -4.06826 -3.13742 0.01 
194 1 20 -0.000873566 0.216357 0.0275948 -0.0102494 0.0400012 -0.0235046 -0.0670252 -0.228852 0.414501 -2.25075 -4.06826 -3.13742 0.01 
195 1 20 0.0011474 0.223624 0.0325048 -0.00742505 0.0447116 -0.0316388 0 0 0 -2.25075 -4.06826 -3.13742 0.01 
196 1 20 0.00316837 0.230891 0.0374148 -0.00460072 0.0494221 -0.0397729 0 0 0 -2.25075 -4.06826 -3.13742 0.01 
197 1 20 0.00518933 0.238158 0.0423247 -0.00177639 0.0541326 -0.0479071 0 0 0 -2.25075 -4.06826 -3.13742 0.01 
198 1 20 0.0072103 0.245425 0.0472347 0.00104795 0.0588431 -0.0560413 0 0 0 -2.25075 -4.06826 -3.13742 0.01 
199 1 20 0.00923127 0.252692 0.0521447 0.00387228 0.0635536 -0.0641755 0.162454 0.446791 -0.378993 -2.25075 -4.06826 -3.13742 0.01 
200 1 20 0.0112522 0.259959 0.0570546 0.00669661 0.0682641 -0.0723096 0 0 0 -2.25075 -4.06826 -3.13742 0.01 
201 1 21 0.0135352 0.00408049 0.0112898 0.00439359 -0.0158873 -0.0160962 0.0358527 0.636669 -0.223393 0.608575 -3.75478 -2.46762 0.01 
202 1 21 0.011413 0.0107314 0.0169698 -0.000521633 -0.0141073 -0.0200169 0 0 0 0.608575 -3.75478 -2.46762 0.01 
203 1 21 0.00929087 0.0173823 0.0226497 -0.00543686 -0.0123273 -0.0239376 -0.326295 -0.453996 0.915915 0.608575 -3.75478 -2.46762 0.01 
204 1 21 0.0071687 0.0240331 0.0283297 -0.0103521 -0.0105473 -0.0278584 -0.167889 -0.0109973 -0.086326 0.608575 -3.75478 -2.46762 0.01 
205 1 21 0.00504653 0.030684 0.0340097 -0.0152673 -0.00876725 -0.0317791 0 0 0 0.608575 -3.75478 -2.46762 0.01 
206 1 21 0.00292436 0.0373349 0.0396897 -0.0201825 -0.00698723 -0.0356998 0 0 0 0.608575 -3.75478 -2.46762 0.01 
207 1 21 0.000802188 0.0439858 0.0453697 -0.0250978 -0.00520721 -0.0396205 0.197976 0.00187596 -0.117268 0.608575 -3.75478 -2.46762 0.01 
208 1 21 -0.00131998 0.0506367 0.0510497 -0.030013 -0.00342719 -0.0435413 0 0 0 0.608575 -3.75478 -2.46762 0.01 
209 1 21 -0.00344215 0.0572875 0.0567296 -0.0349282 -0.00164718 -0.047462 0 0 0 0.608575 -3.75478 -2.46762 0.01 
210 1 21 -0.00556432 0.0639384 0.0624096 -0.0398434 0.000132843 -0.0513827 0 0 0 0.608575 -3.75478 -2.46762 0.01 
211 1 22 0.016899 0.278054 0.0675136 0.0134404 0.0672582 0.0335711 0.017231 0.0569519 -0.18018 -0.64419 -2.97281 -0.970511 0.01 
212 1 22 0.0132828 0.2722 0.0733146 -0.00948648 0.0745047 0.0265919 0 0 0 -0.64419 -2.97281 -0.970511 0.01 
213 1 22 0.00966657 0.266346 0.0791156 -0.0324133 0.0817513 0.0196127 0 0 0 -0.64419 -2.97281 -0.970511 0.01 
214 1 22 0.00605034 0.260492 0.0849166 -0.0553401 0.0889978 0.0126335 0 0 0 -0.64419 -2.97281 -0.970511 0.01 
215 1 22 0.00243411 0.254637 0.0907176 -0.078267 0.0962444 0.00565433 0 0 0 -0.64419 -2.97281 -0.970511 0.01 
216 1 22 -0.00118212 0.248783 0.0965186 -0.101194 0.103491 -0.00132486 0 0 0 -0.64419 -2.97281 -0.970511 0.01 
217 1 22 -0.00479835 0.242929 0.10232 -0.124121 0.110737 -0.00830404 0.039631 0.028404 0.0142476 -0.64419 -2.97281 -0.970511 0.01 
218 1 22 -0.00841458 0.237075 0.108121 -0.147047 0.117984 -0.0152832 0.0326352 0.0249032 0.0123211 -0.64419 -2.97281 -0.970511 0.01 
219 1 22 -0.0120308 0.231221 0.113922 -0.169974 0.125231 -0.0222624 0 0 0 -0.64419 -2.97281 -0.970511 0.01 
220 1 22 -0.015647 0.225367 0.119723 -0.192901 0.132477 -0.0292416 0 0 0 -0.64419 -2.97281 -0.970511 0.01 
221 1 23 0.271468 0.0553741 0.0794516 0.389161 0.0784922 -0.234712 -0.288488 0.150356 -0.379338 -4.98397 2.24236 5.82082 0.01 
222 1 23 0.265235 0.0594822 0.0844788 0.376521 0.067267 -0.241211 0 0 0 -4.98397 2.24236 5.82082 0.01 
223 1 23 0.259002 0.0635904 0.0895061 0.363881 0.0560418 -0.247709 0 0 0 -4.98397 2.24236 5.82082 0.01 
224 1 23 0.252769 0.0676986 0.0945333 0.351241 0.0448166 -0.254208 0.119117 -0.0509797 0.544495 -4.98397 2.24236 5.82082 0.01 
225 1 23 0.246536 0.0718067 0.0995606 0.338601 0.0335913 -0.260706 -0.0098536 0.00300556 -0.00824203 -4.98397 2.24236 5.82082 0.01 
226 1 23 0.240303 0.0759149 0.104588 0.325961 0.0223661 -0.267204 0 0 0 -4.98397 2.24236 5.82082 0.01 
227 1 23 0.23407 0.0800231 0.109615 0.313321 0.0111409 -0.273703 0 0 0 -4.98397 2.24236 5.82082 0.01 
228 1 23 0.227837 0.0841312 0.114642 0.300681 -8.43363e-05 -0.280201 0 0 0 -4.98397 2.24236 5.82082 0.01 
229 1 23 0.221604 0.0882394 0.11967 0.288041 -0.0113096 -0.2867 0 0 0 -4.98397 2.24236 5.82082 0.01 
230 1 23 0.215371 0.0923476 0.124697 0.275401 -0.0225348 -0.293198 0 0 0 -4.98397 2.24236 5.82082 0.01 
231 1 24 0.174618 0.00888688 0.0109929 0.0972254 -0.175993 -0.0178526 0.890221 1.057 -1.44544 6.08412 2.68353 6.72224 0.01 
232 1 24 0.182245 0.00930305 0.0157525 0.1072 -0.15368 -0.0357882 0 0 0 6.08412 2.68353 6.72224 0.01 
233 1 24 0.189872 0.00971921 0.0205121 0.117175 -0.131367 -0.0537237 -0.594825 -1.10921 2.00322 6.08412 2.68353 6.72224 0.01 
234 1 24 0.197499 0.0101354 0.0252718 0.12715 -0.109054 -0.0716592 -0.507981 -0.616066 0.403493 6.08412 2.68353 6.72224 0.01 
235 1 24 0.205126 0.0105515 0.0300314 0.137126 -0.086741 -0.0895947 0 0 0 6.08412 2.68353 6.72224 0.01 
236 1 24 0.212754 0.0109677 0.034791 0.147101 -0.064428 -0.10753 0 0 0 6.08412 2.68353 6.72224 0.01 
237 1 24 0.220381 0.0113839 0.0395507 0.157076 -0.042115 -0.125466 0 0 0 6.08412 2.68353 6.72224 0.01 
238 1 24 0.228008 0.0118 0.0443103 0.167051 -0.0198019 -0.143401 0 0 0 6.08412 2.68353 6.72224 0.01 
239 1 24 0.235635 0.0122162 0.04907 0.177026 0.00251106 -0.161337 0 0 0 6.08412 2.68353 6.72224 0.01 
240 1 24 0.243262 0.0126324 0.0538296 0.187001 0.0248241 -0.179272 0.0885313 0.340607 -0.310984 6.08412 2.68353 6.72224 0.01 
241 1 25 0.142447 -0.216791 0.0512433 0.107753 -0.420296 -0.339247 2.80916 0.780039 9.87529 0.272723 1.03326 -2.66683 0.01 
242 1 25 0.145309 -0.213681 0.0591889 0.124257 -0.430097 -0.341356 0 0 0 0.272723 1.03326 -2.66683 0.01 
243 1 25 0.148172 -0.210571 0.0671345 0.140761 -0.439899 -0.343466 0 0 0 0.272723 1.03326 -2.66683 0.01 
244 1 25 0.151035 -0.207461 0.0750801 0.157265 -0.4497 -0.345576 0 0 0 0.272723 1.03326 -2.66683 0.01 
245 1 25 0.153898 -0.204351 0.0830257 0.173769 -0.459501 -0.347686 -0.599473 0.415836 0.156426 0.272723 1.03326 -2.66683 0.01 
246 1 25 0.15676 -0.201241 0.0909713 0.190273 -0.469303 -0.349795 0 0 0 0.272723 1.03326 -2.66683 0.01 
247 1 25 0.159623 -0.198131 0.0989168 0.206777 -0.479104 -0.351905 0 0 0 0.272723 1.03326 -2.66683 0.01 
248 1 25 0.162486 -0.195021 0.106862 0.223281 -0.488905 -0.354015 0 0 0 0.272723 1.03326 -2.66683 0.01 
249 1 25 0.165348 -0.191911 0.114808 0.239784 -0.498707 -0.356125 0 0 0 0.272723 1.03326 -2.66683 0.01 
250 1 25 0.168211 -0.188801 0.122754 0.256288 -0.508508 -0.358234 0 0 0 0.272723 1.03326 -2.66683 0.01 
251 1 26 -0.00179355 -0.175061 0.00983302 -0.0486192 -0.0949728 -0.0285484 -0.38025 1.15518 2.4323 1.07286 -7.59362 9.6748 0.01 
252 1 26 -0.000850413 -0.181889 0.015621 -0.026519 -0.0920577 -0.0287111 0 0 0 1.07286 -7.59362 9.6748 0.01 
253 1 26 9.27261e-05 -0.188716 0.0214089 -0.00441885 -0.0891427 -0.0288738 0.368477 0.213406 0.349067 1.07286 -7.59362 9.6748 0.01 
254 1 26 0.00103587 -0.195543 0.0271968 0.0176813 -0.0862276 -0.0290366 0.647413 0.0171424 -1.44387 1.07286 -7.59362 9.6748 0.01 
255 1 26 0.00197901 -0.20237 0.0329848 0.0397815 -0.0833125 -0.0291993 -0.654339 -1.16596 -2.79452 1.07286 -7.59362 9.6748 0.01 
256 1 26 0.00292214 -0.209197 0.0387727 0.0618817 -0.0803975 -0.029362 -0.901067 -0.485288 0.339076 1.07286 -7.59362 9.6748 0.01 
257 1 26 0.00386528 -0.216024 0.0445606 0.0839818 -0.0774824 -0.0295248 -0.465401 -0.250066 0.252001 1.07286 -7.59362 9.6748 0.01 