ITEM: TIMESTEP
21000
ITEM: NUMBER OF ATOMS
6300
ITEM: BOX BOUNDS mm mm mm
-0.320697 0.330249
-0.3 0.325879
0 0.5
ITEM: ATOMS id type mol x y z vx vy vz fx fy fz omegax omegay omegaz radius 
1 1 1 -0.118247 -0.118727 0.0989138 -0.129302 0.0327543 -0.103403 -0.0448794 0.0400505 0.0198761 2.25243 0.686977 2.12052 0.01 
2 1 1 -0.118407 -0.119791 0.107849 -0.120907 0.0122883 -0.105689 0 0 0 2.25243 0.686977 2.12052 0.01 
3 1 1 -0.118567 -0.120855 0.116785 -0.112513 -0.00817774 -0.107975 0 0 0 2.25243 0.686977 2.12052 0.01 
4 1 1 -0.118727 -0.121918 0.12572 -0.104119 -0.0286438 -0.110261 0 0 0 2.25243 0.686977 2.12052 0.01 
5 1 1 -0.118887 -0.122982 0.134656 -0.095725 -0.0491098 -0.112547 0 0 0 2.25243 0.686977 2.12052 0.01 
6 1 1 -0.119047 -0.124046 0.143591 -0.0873309 -0.0695758 -0.114833 0 0 0 2.25243 0.686977 2.12052 0.01 
7 1 1 -0.119207 -0.12511 0.152527 -0.0789368 -0.0900418 -0.117119 0 0 0 2.25243 0.686977 2.12052 0.01 
8 1 1 -0.119367 -0.126173 0.161462 -0.0705427 -0.110508 -0.119405 0 0 0 2.25243 0.686977 2.12052 0.01 
9 1 1 -0.119527 -0.127237 0.170398 -0.0621486 -0.130974 -0.121691 0.00468324 0.000326921 -0.00285434 2.25243 0.686977 2.12052 0.01 
10 1 1 -0.119688 -0.128301 0.179333 -0.0537544 -0.15144 -0.123977 0 0 0 2.25243 0.686977 2.12052 0.01 
11 1 2 -0.0227174 -0.112484 0.0422961 0.0228355 -0.181604 -0.13093 -0.148926 0.09116 0.0357199 -0.925857 -1.44008 0.116149 0.01 
12 1 2 -0.0245 -0.112362 0.0511169 0.0101187 -0.173645 -0.13361 0 0 0 -0.925857 -1.44008 0.116149 0.01 
13 1 2 -0.0262826 -0.11224 0.0599378 -0.00259819 -0.165685 -0.13629 0 0 0 -0.925857 -1.44008 0.116149 0.01 
14 1 2 -0.0280653 -0.112118 0.0687586 -0.015315 -0.157725 -0.13897 0 0 0 -0.925857 -1.44008 0.116149 0.01 
15 1 2 -0.0298479 -0.111996 0.0775795 -0.0280319 -0.149765 -0.14165 -0.274032 -0.536245 0.0260688 -0.925857 -1.44008 0.116149 0.01 
16 1 2 -0.0316305 -0.111874 0.0864003 -0.0407488 -0.141806 -0.14433 0.438911 -0.60295 0.480812 -0.925857 -1.44008 0.116149 0.01 
17 1 2 -0.0334132 -0.111752 0.0952212 -0.0534656 -0.133846 -0.14701 0 0 0 -0.925857 -1.44008 0.116149 0.01 
18 1 2 -0.0351958 -0.11163 0.104042 -0.0661825 -0.125886 -0.14969 0 0 0 -0.925857 -1.44008 0.116149 0.01 
19 1 2 -0.0369784 -0.111508 0.112863 -0.0788994 -0.117926 -0.152371 0 0 0 -0.925857 -1.44008 0.116149 0.01 
20 1 2 -0.038761 -0.111386 0.121684 -0.0916162 -0.109966 -0.155051 -0.367336 0.825779 -0.607517 -0.925857 -1.44008 0.116149 0.01 
21 1 3 -0.0271646 -0.0339216 0.00989863 -0.0201255 -0.0422998 0.0224851 0.227901 0.270702 0.416934 2.05612 -0.292188 -1.76537 0.01 
22 1 3 -0.0299423 -0.0382049 0.0173107 -0.0298528 -0.0526361 0.0128666 0 0 0 2.05612 -0.292188 -1.76537 0.01 
23 1 3 -0.0327199 -0.0424882 0.0247227 -0.0395801 -0.0629725 0.00324802 0 0 0 2.05612 -0.292188 -1.76537 0.01 
24 1 3 -0.0354976 -0.0467715 0.0321347 -0.0493074 -0.0733089 -0.00637053 0 0 0 2.05612 -0.292188 -1.76537 0.01 
25 1 3 -0.0382752 -0.0510548 0.0395467 -0.0590347 -0.0836453 -0.0159891 0 0 0 2.05612 -0.292188 -1.76537 0.01 
26 1 3 -0.0410529 -0.0553381 0.0469587 -0.068762 -0.0939816 -0.0256076 0 0 0 2.05612 -0.292188 -1.76537 0.01 
27 1 3 -0.0438305 -0.0596214 0.0543707 -0.0784893 -0.104318 -0.0352262 0 0 0 2.05612 -0.292188 -1.76537 0.01 
28 1 3 -0.0466082 -0.0639047 0.0617828 -0.0882166 -0.114654 -0.0448447 0 0 0 2.05612 -0.292188 -1.76537 0.01 
29 1 3 -0.0493859 -0.068188 0.0691948 -0.0979439 -0.124991 -0.0544633 0 0 0 2.05612 -0.292188 -1.76537 0.01 
30 1 3 -0.0521635 -0.0724713 0.0766068 -0.107671 -0.135327 -0.0640818 0.577594 0.305044 0.800268 2.05612 -0.292188 -1.76537 0.01 
31 1 4 -0.0882909 0.112206 0.0098856 -0.0202215 0.0326513 0.00101382 0.0548672 0.144836 1.00183 -3.22944 -1.98925 -1.11581 0.01 
32 1 4 -0.0886703 0.114487 0.0185834 -0.0349778 0.0611635 -0.00710876 0 0 0 -3.22944 -1.98925 -1.11581 0.01 
33 1 4 -0.0890496 0.116769 0.0272811 -0.0497341 0.0896756 -0.0152313 0 0 0 -3.22944 -1.98925 -1.11581 0.01 
34 1 4 -0.089429 0.11905 0.0359789 -0.0644904 0.118188 -0.0233539 0 0 0 -3.22944 -1.98925 -1.11581 0.01 
35 1 4 -0.0898084 0.121332 0.0446766 -0.0792467 0.1467 -0.0314765 0 0 0 -3.22944 -1.98925 -1.11581 0.01 
36 1 4 -0.0901878 0.123613 0.0533744 -0.094003 0.175212 -0.0395991 0 0 0 -3.22944 -1.98925 -1.11581 0.01 
37 1 4 -0.0905672 0.125895 0.0620721 -0.108759 0.203724 -0.0477217 0 0 0 -3.22944 -1.98925 -1.11581 0.01 
38 1 4 -0.0909466 0.128176 0.0707699 -0.123516 0.232236 -0.0558443 0 0 0 -3.22944 -1.98925 -1.11581 0.01 
39 1 4 -0.091326 0.130458 0.0794676 -0.138272 0.260749 -0.0639668 0.429549 0.152379 -0.735177 -3.22944 -1.98925 -1.11581 0.01 
40 1 4 -0.0917054 0.132739 0.0881654 -0.153028 0.289261 -0.0720894 -0.0759606 0.00241462 -0.189294 -3.22944 -1.98925 -1.11581 0.01 
41 1 5 0.0787958 -0.134753 0.00983896 0.00728645 -0.0191847 -0.00386071 -0.494154 0.266652 1.81962 0.13842 1.57907 5.10671 0.01 
42 1 5 0.079326 -0.133342 0.0187118 0.0140904 -0.017705 -0.00450269 0 0 0 0.13842 1.57907 5.10671 0.01 
43 1 5 0.0798563 -0.131931 0.0275846 0.0208943 -0.0162253 -0.00514467 0 0 0 0.13842 1.57907 5.10671 0.01 
44 1 5 0.0803866 -0.130519 0.0364575 0.0276982 -0.0147455 -0.00578666 0.75185 0.203629 -0.243911 0.13842 1.57907 5.10671 0.01 
45 1 5 0.0809168 -0.129108 0.0453303 0.0345022 -0.0132658 -0.00642864 0 0 0 0.13842 1.57907 5.10671 0.01 
46 1 5 0.0814471 -0.127697 0.0542031 0.0413061 -0.011786 -0.00707062 0 0 0 0.13842 1.57907 5.10671 0.01 
47 1 5 0.0819774 -0.126286 0.063076 0.04811 -0.0103063 -0.0077126 0 0 0 0.13842 1.57907 5.10671 0.01 
48 1 5 0.0825076 -0.124874 0.0719488 0.054914 -0.00882658 -0.00835458 0 0 0 0.13842 1.57907 5.10671 0.01 
49 1 5 0.0830379 -0.123463 0.0808216 0.0617179 -0.00734684 -0.00899656 -0.587583 -0.0911847 0.240301 0.13842 1.57907 5.10671 0.01 
50 1 5 0.0835682 -0.122052 0.0896945 0.0685218 -0.00586711 -0.00963854 0.0517216 -0.052459 -0.19348 0.13842 1.57907 5.10671 0.01 
51 1 6 0.175596 -0.0399227 0.0103445 0.0476569 0.125777 0.0125522 -0.416796 0.392033 0.240919 17.4311 1.42362 -20.9745 0.01 
52 1 6 0.171704 -0.0423367 0.018092 0.00805331 0.0723626 -0.0239862 0 0 0 17.4311 1.42362 -20.9745 0.01 
53 1 6 0.167812 -0.0447507 0.0258396 -0.0315503 0.0189479 -0.0605247 0 0 0 17.4311 1.42362 -20.9745 0.01 
54 1 6 0.16392 -0.0471648 0.0335871 -0.0711539 -0.0344668 -0.0970632 0.324955 0.0713686 0.467979 17.4311 1.42362 -20.9745 0.01 
55 1 6 0.160028 -0.0495788 0.0413347 -0.110758 -0.0878815 -0.133602 0 0 0 17.4311 1.42362 -20.9745 0.01 
56 1 6 0.156136 -0.0519928 0.0490822 -0.150361 -0.141296 -0.17014 0 0 0 17.4311 1.42362 -20.9745 0.01 
57 1 6 0.152244 -0.0544069 0.0568298 -0.189965 -0.194711 -0.206679 0 0 0 17.4311 1.42362 -20.9745 0.01 
58 1 6 0.148352 -0.0568209 0.0645773 -0.229568 -0.248126 -0.243217 0 0 0 17.4311 1.42362 -20.9745 0.01 
59 1 6 0.14446 -0.0592349 0.0723248 -0.269172 -0.30154 -0.279756 0 0 0 17.4311 1.42362 -20.9745 0.01 
60 1 6 0.140568 -0.061649 0.0800724 -0.308776 -0.354955 -0.316294 0.944632 -0.571479 -3.40411 17.4311 1.42362 -20.9745 0.01 
61 1 7 -0.0392956 0.217375 0.00985773 0.00487208 0.0325963 -0.0243161 0.573256 -0.360795 1.93177 -2.57979 1.64 -1.44953 0.01 
62 1 7 -0.0391065 0.217068 0.0188505 0.0191741 0.0555217 -0.0238322 0 0 0 -2.57979 1.64 -1.44953 0.01 
63 1 7 -0.0389175 0.21676 0.0278432 0.0334761 0.0784471 -0.0233483 0 0 0 -2.57979 1.64 -1.44953 0.01 
64 1 7 -0.0387284 0.216452 0.036836 0.0477781 0.101373 -0.0228645 0 0 0 -2.57979 1.64 -1.44953 0.01 
65 1 7 -0.0385394 0.216144 0.0458287 0.0620801 0.124298 -0.0223806 0 0 0 -2.57979 1.64 -1.44953 0.01 
66 1 7 -0.0383503 0.215837 0.0548215 0.0763821 0.147223 -0.0218967 -0.165101 -0.0518692 0.0269046 -2.57979 1.64 -1.44953 0.01 
67 1 7 -0.0381613 0.215529 0.0638142 0.0906841 0.170149 -0.0214129 -1.24221 0.643398 -0.597935 -2.57979 1.64 -1.44953 0.01 
68 1 7 -0.0379722 0.215221 0.072807 0.104986 0.193074 -0.020929 -0.597051 0.289401 -0.243443 -2.57979 1.64 -1.44953 0.01 
69 1 7 -0.0377832 0.214914 0.0817997 0.119288 0.215999 -0.0204451 0 0 0 -2.57979 1.64 -1.44953 0.01 
70 1 7 -0.0375941 0.214606 0.0907925 0.13359 0.238925 -0.0199613 1.18843 -0.554828 -0.469455 -2.57979 1.64 -1.44953 0.01 
71 1 8 0.130602 -0.138975 0.107466 0.0697206 -0.142537 -0.0618134 0.0320305 -0.0708684 0.339691 -0.980435 3.03907 -2.55348 0.01 
72 1 8 0.132675 -0.138736 0.116221 0.0969365 -0.139246 -0.068347 0 0 0 -0.980435 3.03907 -2.55348 0.01 
73 1 8 0.134748 -0.138498 0.124975 0.124152 -0.135956 -0.0748806 0 0 0 -0.980435 3.03907 -2.55348 0.01 
74 1 8 0.136821 -0.138259 0.13373 0.151368 -0.132665 -0.0814143 0 0 0 -0.980435 3.03907 -2.55348 0.01 
75 1 8 0.138894 -0.13802 0.142485 0.178584 -0.129375 -0.0879479 0 0 0 -0.980435 3.03907 -2.55348 0.01 
76 1 8 0.140967 -0.137782 0.15124 0.2058 -0.126084 -0.0944815 0 0 0 -0.980435 3.03907 -2.55348 0.01 
77 1 8 0.14304 -0.137543 0.159994 0.233016 -0.122794 -0.101015 0 0 0 -0.980435 3.03907 -2.55348 0.01 
78 1 8 0.145112 -0.137304 0.168749 0.260232 -0.119504 -0.107549 0 0 0 -0.980435 3.03907 -2.55348 0.01 
79 1 8 0.147185 -0.137066 0.177504 0.287448 -0.116213 -0.114082 0 0 0 -0.980435 3.03907 -2.55348 0.01 
80 1 8 0.149258 -0.136827 0.186259 0.314664 -0.112923 -0.120616 0 0 0 -0.980435 3.03907 -2.55348 0.01 
81 1 9 -0.124338 0.033772 0.10214 -0.100398 0.209454 -0.298527 0 0 0 2.51257 6.36353 -0.0307787 0.01 
82 1 9 -0.120088 0.0323921 0.109952 -0.0507263 0.189694 -0.329039 0 0 0 2.51257 6.36353 -0.0307787 0.01 
83 1 9 -0.115838 0.0310121 0.117765 -0.00105459 0.169934 -0.359552 0 0 0 2.51257 6.36353 -0.0307787 0.01 
84 1 9 -0.111588 0.0296322 0.125577 0.0486171 0.150174 -0.390064 0 0 0 2.51257 6.36353 -0.0307787 0.01 
85 1 9 -0.107338 0.0282523 0.133389 0.0982888 0.130414 -0.420576 0 0 0 2.51257 6.36353 -0.0307787 0.01 
86 1 9 -0.103088 0.0268724 0.141202 0.147961 0.110654 -0.451089 0 0 0 2.51257 6.36353 -0.0307787 0.01 
87 1 9 -0.0988381 0.0254924 0.149014 0.197632 0.0908944 -0.481601 0 0 0 2.51257 6.36353 -0.0307787 0.01 
88 1 9 -0.0945881 0.0241125 0.156826 0.247304 0.0711345 -0.512114 0.411015 0.416078 -0.463215 2.51257 6.36353 -0.0307787 0.01 
89 1 9 -0.090338 0.0227326 0.164639 0.296976 0.0513745 -0.542626 0 0 0 2.51257 6.36353 -0.0307787 0.01 
90 1 9 -0.086088 0.0213526 0.172451 0.346647 0.0316146 -0.573138 0 0 0 2.51257 6.36353 -0.0307787 0.01 
91 1 10 0.0611246 0.202629 0.109818 -0.0623286 0.0991941 -0.0341449 -0.164619 0.136638 0.94122 -3.82006 -1.24238 10.8015 0.01 
92 1 10 0.0589142 0.203827 0.118459 -0.0860074 0.10833 -0.0414682 0 0 0 -3.82006 -1.24238 10.8015 0.01 
93 1 10 0.0567039 0.205026 0.127101 -0.109686 0.117467 -0.0487916 0 0 0 -3.82006 -1.24238 10.8015 0.01 
94 1 10 0.0544935 0.206224 0.135743 -0.133365 0.126603 -0.056115 0 0 0 -3.82006 -1.24238 10.8015 0.01 
95 1 10 0.0522831 0.207422 0.144384 -0.157044 0.135739 -0.0634384 0 0 0 -3.82006 -1.24238 10.8015 0.01 
96 1 10 0.0500727 0.20862 0.153026 -0.180723 0.144876 -0.0707618 0 0 0 -3.82006 -1.24238 10.8015 0.01 
97 1 10 0.0478624 0.209818 0.161668 -0.204401 0.154012 -0.0780852 0 0 0 -3.82006 -1.24238 10.8015 0.01 
98 1 10 0.045652 0.211017 0.170309 -0.22808 0.163148 -0.0854086 0 0 0 -3.82006 -1.24238 10.8015 0.01 
99 1 10 0.0434416 0.212215 0.178951 -0.251759 0.172285 -0.092732 0 0 0 -3.82006 -1.24238 10.8015 0.01 
100 1 10 0.0412312 0.213413 0.187593 -0.275438 0.181421 -0.100055 -0.0495556 0.16317 -0.375182 -3.82006 -1.24238 10.8015 0.01 
101 1 11 -0.221445 -0.0949346 0.0502683 -0.233727 0.174678 -0.628539 0 0 0 -0.842718 -0.597133 -10.9487 0.01 
102 1 11 -0.219305 -0.0959202 0.0589544 -0.249704 0.158564 -0.62643 0 0 0 -0.842718 -0.597133 -10.9487 0.01 
103 1 11 -0.217164 -0.0969058 0.0676404 -0.265682 0.142451 -0.624321 0 0 0 -0.842718 -0.597133 -10.9487 0.01 
104 1 11 -0.215024 -0.0978913 0.0763265 -0.281659 0.126338 -0.622213 0 0 0 -0.842718 -0.597133 -10.9487 0.01 
105 1 11 -0.212884 -0.0988769 0.0850126 -0.297637 0.110225 -0.620104 0 0 0 -0.842718 -0.597133 -10.9487 0.01 
106 1 11 -0.210744 -0.0998625 0.0936987 -0.313614 0.0941117 -0.617996 0.193076 -0.158236 0.024412 -0.842718 -0.597133 -10.9487 0.01 
107 1 11 -0.208603 -0.100848 0.102385 -0.329592 0.0779985 -0.615887 0 0 0 -0.842718 -0.597133 -10.9487 0.01 
108 1 11 -0.206463 -0.101834 0.111071 -0.345569 0.0618854 -0.613779 0 0 0 -0.842718 -0.597133 -10.9487 0.01 
109 1 11 -0.204323 -0.102819 0.119757 -0.361546 0.0457722 -0.61167 0 0 0 -0.842718 -0.597133 -10.9487 0.01 
110 1 11 -0.202183 -0.103805 0.128443 -0.377524 0.029659 -0.609561 0 0 0 -0.842718 -0.597133 -10.9487 0.01 
111 1 12 0.0989786 0.053738 0.0965526 0.187194 -0.0151407 -0.468282 0 0 0 -4.11033 -3.23207 -6.9146 0.01 
112 1 12 0.101195 0.0555513 0.105085 0.172156 0.00460442 -0.468572 0 0 0 -4.11033 -3.23207 -6.9146 0.01 
113 1 12 0.103411 0.0573647 0.113617 0.157118 0.0243496 -0.468862 0 0 0 -4.11033 -3.23207 -6.9146 0.01 
114 1 12 0.105628 0.059178 0.122149 0.14208 0.0440947 -0.469152 0 0 0 -4.11033 -3.23207 -6.9146 0.01 
115 1 12 0.107844 0.0609914 0.130682 0.127041 0.0638399 -0.469443 0 0 0 -4.11033 -3.23207 -6.9146 0.01 
116 1 12 0.11006 0.0628047 0.139214 0.112003 0.083585 -0.469733 0 0 0 -4.11033 -3.23207 -6.9146 0.01 
117 1 12 0.112277 0.0646181 0.147746 0.0969648 0.10333 -0.470023 0 0 0 -4.11033 -3.23207 -6.9146 0.01 
118 1 12 0.114493 0.0664314 0.156278 0.0819266 0.123075 -0.470313 0 0 0 -4.11033 -3.23207 -6.9146 0.01 
119 1 12 0.116709 0.0682448 0.164811 0.0668884 0.142821 -0.470603 0 0 0 -4.11033 -3.23207 -6.9146 0.01 
120 1 12 0.118926 0.0700581 0.173343 0.0518501 0.162566 -0.470893 0 0 0 -4.11033 -3.23207 -6.9146 0.01 
121 1 13 -0.0102946 0.235479 0.100303 0.0967098 0.273406 -0.239773 0 0 0 1.694 -9.61168 9.60423 0.01 
122 1 13 -0.0130851 0.231902 0.108076 0.0563469 0.233438 -0.272653 0 0 0 1.694 -9.61168 9.60423 0.01 
123 1 13 -0.0158755 0.228326 0.115849 0.0159839 0.19347 -0.305532 0.00305568 0.00314922 0.000624789 1.694 -9.61168 9.60423 0.01 
124 1 13 -0.018666 0.224749 0.123623 -0.024379 0.153502 -0.338412 0 0 0 1.694 -9.61168 9.60423 0.01 
125 1 13 -0.0214565 0.221173 0.131396 -0.064742 0.113534 -0.371292 0 0 0 1.694 -9.61168 9.60423 0.01 
126 1 13 -0.024247 0.217596 0.139169 -0.105105 0.0735656 -0.404172 0 0 0 1.694 -9.61168 9.60423 0.01 
127 1 13 -0.0270374 0.21402 0.146942 -0.145468 0.0335976 -0.437052 0 0 0 1.694 -9.61168 9.60423 0.01 
128 1 13 -0.0298279 0.210443 0.154715 -0.185831 -0.00637041 -0.469931 0 0 0 1.694 -9.61168 9.60423 0.01 
129 1 13 -0.0326184 0.206866 0.162488 -0.226194 -0.0463384 -0.502811 0 0 0 1.694 -9.61168 9.60423 0.01 
130 1 13 -0.0354089 0.20329 0.170261 -0.266557 -0.0863065 -0.535691 0 0 0 1.694 -9.61168 9.60423 0.01 
131 1 14 -0.0461431 0.122111 0.00974193 -0.00459557 0.0568573 0.0132022 0.424525 0.652514 3.14155 -4.99214 -0.501266 -7.53669 0.01 
132 1 14 -0.0444691 0.124204 0.0183335 0.00687598 0.0871314 0.00359018 0 0 0 -4.99214 -0.501266 -7.53669 0.01 
133 1 14 -0.0427951 0.126298 0.0269251 0.0183475 0.117406 -0.00602186 0 0 0 -4.99214 -0.501266 -7.53669 0.01 
134 1 14 -0.0411212 0.128391 0.0355166 0.0298191 0.14768 -0.0156339 0 0 0 -4.99214 -0.501266 -7.53669 0.01 
135 1 14 -0.0394472 0.130485 0.0441082 0.0412906 0.177954 -0.0252459 0 0 0 -4.99214 -0.501266 -7.53669 0.01 
136 1 14 -0.0377732 0.132578 0.0526998 0.0527622 0.208228 -0.034858 0 0 0 -4.99214 -0.501266 -7.53669 0.01 
137 1 14 -0.0360993 0.134672 0.0612913 0.0642337 0.238502 -0.04447 0 0 0 -4.99214 -0.501266 -7.53669 0.01 
138 1 14 -0.0344253 0.136765 0.0698829 0.0757052 0.268776 -0.054082 0 0 0 -4.99214 -0.501266 -7.53669 0.01 
139 1 14 -0.0327514 0.138859 0.0784745 0.0871768 0.29905 -0.0636941 0 0 0 -4.99214 -0.501266 -7.53669 0.01 
140 1 14 -0.0310774 0.140952 0.087066 0.0986483 0.329325 -0.0733061 -0.67732 -0.928076 -2.72543 -4.99214 -0.501266 -7.53669 0.01 
141 1 15 -0.00523717 -0.0649151 0.012269 -0.0611422 0.0235532 -0.323128 0 0 0 3.25622 -2.22417 -10.8803 0.01 
142 1 15 -0.00734556 -0.0655986 0.0209918 -0.0879796 0.0180897 -0.330043 0 0 0 3.25622 -2.22417 -10.8803 0.01 
143 1 15 -0.00945395 -0.066282 0.0297146 -0.114817 0.0126262 -0.336958 0 0 0 3.25622 -2.22417 -10.8803 0.01 
144 1 15 -0.0115623 -0.0669655 0.0384375 -0.141655 0.00716274 -0.343873 0 0 0 3.25622 -2.22417 -10.8803 0.01 
145 1 15 -0.0136707 -0.067649 0.0471603 -0.168492 0.00169925 -0.350788 0 0 0 3.25622 -2.22417 -10.8803 0.01 
146 1 15 -0.0157791 -0.0683325 0.0558831 -0.195329 -0.00376424 -0.357703 0 0 0 3.25622 -2.22417 -10.8803 0.01 
147 1 15 -0.0178875 -0.069016 0.0646059 -0.222167 -0.00922773 -0.364618 0 0 0 3.25622 -2.22417 -10.8803 0.01 
148 1 15 -0.0199959 -0.0696994 0.0733287 -0.249004 -0.0146912 -0.371533 0 0 0 3.25622 -2.22417 -10.8803 0.01 
149 1 15 -0.0221043 -0.0703829 0.0820515 -0.275842 -0.0201547 -0.378448 0 0 0 3.25622 -2.22417 -10.8803 0.01 
150 1 15 -0.0242127 -0.0710664 0.0907744 -0.302679 -0.0256182 -0.385363 0 0 0 3.25622 -2.22417 -10.8803 0.01 
151 1 16 -0.038431 0.176453 0.00993275 0.02038 -0.0150431 -0.292255 -0.524912 1.47075 5.81897 -7.03271 0.873549 -7.17329 0.01 
152 1 16 -0.0376739 0.178571 0.0186472 0.0431838 0.0408126 -0.30781 -0.136309 0.213191 0.112164 -7.03271 0.873549 -7.17329 0.01 
153 1 16 -0.0369168 0.180689 0.0273617 0.0659876 0.0966682 -0.323365 -0.130575 0.178815 0.105075 -7.03271 0.873549 -7.17329 0.01 
154 1 16 -0.0361598 0.182807 0.0360761 0.0887915 0.152524 -0.33892 -0.113652 0.135536 0.0884183 -7.03271 0.873549 -7.17329 0.01 
155 1 16 -0.0354027 0.184924 0.0447906 0.111595 0.208379 -0.354475 -0.0844174 0.0874533 0.0628719 -7.03271 0.873549 -7.17329 0.01 
156 1 16 -0.0346456 0.187042 0.0535051 0.134399 0.264235 -0.37003 -0.0429413 0.03864 0.0303779 -7.03271 0.873549 -7.17329 0.01 
157 1 16 -0.0338885 0.18916 0.0622195 0.157203 0.320091 -0.385585 0.00812079 -0.00786519 0.00528786 -7.03271 0.873549 -7.17329 0.01 
158 1 16 -0.0331315 0.191278 0.070934 0.180007 0.375946 -0.40114 0.0561844 -0.0583691 0.0368967 -7.03271 0.873549 -7.17329 0.01 
159 1 16 -0.0323744 0.193395 0.0796485 0.202811 0.431802 -0.416695 0.0926793 -0.102018 0.0606075 -7.03271 0.873549 -7.17329 0.01 
160 1 16 -0.0316173 0.195513 0.0883629 0.225614 0.487658 -0.43225 0.0924141 -0.10638 0.059554 -7.03271 0.873549 -7.17329 0.01 
161 1 17 0.0734095 0.0920492 0.00990455 0.0323686 -0.00713715 0.0075382 0.0454245 -0.0675694 0.635465 0.548035 3.14604 -4.43476 0.01 
162 1 17 0.0746891 0.0907055 0.0187112 0.0541156 -0.0176381 0.00277625 0 0 0 0.548035 3.14604 -4.43476 0.01 
163 1 17 0.0759687 0.0893618 0.0275179 0.0758626 -0.028139 -0.0019857 0 0 0 0.548035 3.14604 -4.43476 0.01 
164 1 17 0.0772482 0.0880181 0.0363245 0.0976096 -0.0386399 -0.00674766 0 0 0 0.548035 3.14604 -4.43476 0.01 
165 1 17 0.0785278 0.0866744 0.0451312 0.119357 -0.0491408 -0.0115096 0 0 0 0.548035 3.14604 -4.43476 0.01 
166 1 17 0.0798073 0.0853306 0.0539378 0.141104 -0.0596417 -0.0162716 0 0 0 0.548035 3.14604 -4.43476 0.01 
167 1 17 0.0810869 0.0839869 0.0627445 0.162851 -0.0701426 -0.0210335 0 0 0 0.548035 3.14604 -4.43476 0.01 
168 1 17 0.0823665 0.0826432 0.0715511 0.184598 -0.0806435 -0.0257955 0 0 0 0.548035 3.14604 -4.43476 0.01 
169 1 17 0.083646 0.0812995 0.0803578 0.206345 -0.0911444 -0.0305574 0 0 0 0.548035 3.14604 -4.43476 0.01 
170 1 17 0.0849256 0.0799558 0.0891644 0.228092 -0.101645 -0.0353194 0 0 0 0.548035 3.14604 -4.43476 0.01 
171 1 18 -0.273205 -0.0448239 0.0713029 -0.453353 0.0141473 -0.302901 0 0 0 2.83482 3.0818 5.48724 0.01 
172 1 18 -0.269057 -0.0430786 0.0790971 -0.43891 0.0148126 -0.310736 0 0 0 2.83482 3.0818 5.48724 0.01 
173 1 18 -0.264909 -0.0413333 0.0868913 -0.424467 0.0154778 -0.318572 0 0 0 2.83482 3.0818 5.48724 0.01 
174 1 18 -0.260761 -0.039588 0.0946854 -0.410024 0.0161431 -0.326407 0 0 0 2.83482 3.0818 5.48724 0.01 
175 1 18 -0.256614 -0.0378427 0.10248 -0.395581 0.0168083 -0.334242 -1.76843 -0.211086 3.91109 2.83482 3.0818 5.48724 0.01 
176 1 18 -0.252466 -0.0360973 0.110274 -0.381138 0.0174736 -0.342077 0 0 0 2.83482 3.0818 5.48724 0.01 
177 1 18 -0.248318 -0.034352 0.118068 -0.366695 0.0181388 -0.349912 0 0 0 2.83482 3.0818 5.48724 0.01 
178 1 18 -0.24417 -0.0326067 0.125862 -0.352252 0.0188041 -0.357748 0 0 0 2.83482 3.0818 5.48724 0.01 
179 1 18 -0.240022 -0.0308614 0.133656 -0.337809 0.0194694 -0.365583 0 0 0 2.83482 3.0818 5.48724 0.01 
180 1 18 -0.235874 -0.0291161 0.14145 -0.323366 0.0201346 -0.373418 0 0 0 2.83482 3.0818 5.48724 0.01 
181 1 19 0.0143585 0.179639 0.108082 0.0556856 0.0432561 -0.263233 -1.18 -0.738301 -1.13251 -0.79418 -6.25437 13.9901 0.01 
182 1 19 0.0133619 0.176677 0.116523 0.0443337 0.0360164 -0.267114 0 0 0 -0.79418 -6.25437 13.9901 0.01 
183 1 19 0.0123653 0.173715 0.124963 0.0329818 0.0287767 -0.270995 0 0 0 -0.79418 -6.25437 13.9901 0.01 
184 1 19 0.0113687 0.170753 0.133403 0.02163 0.0215369 -0.274876 0 0 0 -0.79418 -6.25437 13.9901 0.01 
185 1 19 0.010372 0.167792 0.141843 0.0102781 0.0142972 -0.278757 0 0 0 -0.79418 -6.25437 13.9901 0.01 
186 1 19 0.00937544 0.16483 0.150283 -0.00107382 0.00705746 -0.282638 0 0 0 -0.79418 -6.25437 13.9901 0.01 
187 1 19 0.00837883 0.161868 0.158723 -0.0124257 -0.000182271 -0.286519 0 0 0 -0.79418 -6.25437 13.9901 0.01 
188 1 19 0.00738222 0.158906 0.167163 -0.0237776 -0.007422 -0.2904 -0.117179 -0.0300953 0.170008 -0.79418 -6.25437 13.9901 0.01 
189 1 19 0.00638561 0.155945 0.175603 -0.0351295 -0.0146617 -0.294281 0 0 0 -0.79418 -6.25437 13.9901 0.01 
190 1 19 0.005389 0.152983 0.184043 -0.0464814 -0.0219015 -0.298162 0 0 0 -0.79418 -6.25437 13.9901 0.01 
191 1 20 -0.0057855 0.189715 0.00990088 0.0241736 0.0416815 0.00960285 0.0777618 0.134882 0.639439 -3.89593 2.52286 2.79865 0.01 
192 1 20 -0.00489193 0.192388 0.0184483 0.0382574 0.0774824 -0.00306426 0 0 0 -3.89593 2.52286 2.79865 0.01 
193 1 20 -0.00399835 0.195061 0.0269957 0.0523412 0.113283 -0.0157314 0 0 0 -3.89593 2.52286 2.79865 0.01 
194 1 20 -0.00310478 0.197734 0.0355431 0.066425 0.149084 -0.0283985 0 0 0 -3.89593 2.52286 2.79865 0.01 
195 1 20 -0.00221121 0.200406 0.0440905 0.0805089 0.184885 -0.0410656 0 0 0 -3.89593 2.52286 2.79865 0.01 
196 1 20 -0.00131764 0.203079 0.0526379 0.0945927 0.220686 -0.0537327 0 0 0 -3.89593 2.52286 2.79865 0.01 
197 1 20 -0.000424064 0.205752 0.0611853 0.108677 0.256487 -0.0663998 0 0 0 -3.89593 2.52286 2.79865 0.01 
198 1 20 0.000469509 0.208425 0.0697327 0.12276 0.292288 -0.0790669 0 0 0 -3.89593 2.52286 2.79865 0.01 
199 1 20 0.00136308 0.211097 0.0782801 0.136844 0.328088 -0.091734 0 0 0 -3.89593 2.52286 2.79865 0.01 
200 1 20 0.00225665 0.21377 0.0868275 0.150928 0.363889 -0.104401 0.00146447 -0.0772469 -0.242075 -3.89593 2.52286 2.79865 0.01 
201 1 21 0.0184748 0.00588978 0.00943019 -0.0207578 0.0487474 -0.0372863 -1.66089 3.66552 12.5044 -2.82143 -0.223831 2.52645 0.01 
202 1 21 0.0176854 0.00912119 0.0177929 -0.0307936 0.070348 -0.0465801 0.134911 -0.590677 0.711054 -2.82143 -0.223831 2.52645 0.01 
203 1 21 0.0168961 0.0123526 0.0261556 -0.0408294 0.0919485 -0.055874 0.128758 -0.484388 0.575124 -2.82143 -0.223831 2.52645 0.01 
204 1 21 0.0161067 0.015584 0.0345183 -0.0508653 0.113549 -0.0651679 0.114415 -0.380698 0.444562 -2.82143 -0.223831 2.52645 0.01 
205 1 21 0.0153173 0.0188154 0.042881 -0.0609011 0.13515 -0.0744618 0.0930955 -0.279939 0.320685 -2.82143 -0.223831 2.52645 0.01 
206 1 21 0.014528 0.0220468 0.0512437 -0.0709369 0.15675 -0.0837557 1.37299 1.73869 -3.00758 -2.82143 -0.223831 2.52645 0.01 
207 1 21 0.0137386 0.0252782 0.0596065 -0.0809728 0.178351 -0.0930496 0.0349796 -0.0899018 0.0983885 -2.82143 -0.223831 2.52645 0.01 
208 1 21 0.0129493 0.0285096 0.0679692 -0.0910086 0.199951 -0.102343 0.00121771 -0.00293929 0.00313169 -2.82143 -0.223831 2.52645 0.01 
209 1 21 0.0121599 0.031741 0.0763319 -0.101044 0.221552 -0.111637 0.0280153 0.110738 -0.00451112 -2.82143 -0.223831 2.52645 0.01 
210 1 21 0.0113706 0.0349725 0.0846946 -0.11108 0.243152 -0.120931 -0.190528 -1.43809 -1.33068 -2.82143 -0.223831 2.52645 0.01 
211 1 22 0.0081326 0.225496 0.101832 0.134641 0.370575 -0.0878279 -0.00146447 0.0772469 0.242075 6.07439 -2.66477 0.511076 0.01 
212 1 22 0.00620311 0.220535 0.109089 0.11784 0.325509 -0.123109 0 0 0 6.07439 -2.66477 0.511076 0.01 
213 1 22 0.00427362 0.215573 0.116346 0.101038 0.280443 -0.158389 0 0 0 6.07439 -2.66477 0.511076 0.01 
214 1 22 0.00234412 0.210611 0.123602 0.0842365 0.235378 -0.19367 0 0 0 6.07439 -2.66477 0.511076 0.01 
215 1 22 0.000414629 0.20565 0.130859 0.067435 0.190312 -0.228951 0 0 0 6.07439 -2.66477 0.511076 0.01 
216 1 22 -0.00151487 0.200688 0.138116 0.0506335 0.145246 -0.264232 0 0 0 6.07439 -2.66477 0.511076 0.01 
217 1 22 -0.00344436 0.195726 0.145372 0.033832 0.10018 -0.299512 0 0 0 6.07439 -2.66477 0.511076 0.01 
218 1 22 -0.00537385 0.190765 0.152629 0.0170305 0.0551144 -0.334793 0 0 0 6.07439 -2.66477 0.511076 0.01 
219 1 22 -0.00730335 0.185803 0.159886 0.000228965 0.0100486 -0.370074 0 0 0 6.07439 -2.66477 0.511076 0.01 
220 1 22 -0.00923284 0.180841 0.167142 -0.0165725 -0.0350172 -0.405355 0.000961038 0.00857185 0.00943872 6.07439 -2.66477 0.511076 0.01 
221 1 23 0.213337 0.05138 0.10929 0.315662 -0.0200949 0.0723219 0 0 0 -3.89656 -6.52035 -3.24925 0.01 
222 1 23 0.212527 0.054102 0.11783 0.268821 0.0158144 0.0564338 0 0 0 -3.89656 -6.52035 -3.24925 0.01 
223 1 23 0.211717 0.056824 0.126371 0.221981 0.0517236 0.0405458 0 0 0 -3.89656 -6.52035 -3.24925 0.01 
224 1 23 0.210907 0.059546 0.134911 0.17514 0.0876328 0.0246578 0 0 0 -3.89656 -6.52035 -3.24925 0.01 
225 1 23 0.210097 0.062268 0.143451 0.1283 0.123542 0.00876981 0 0 0 -3.89656 -6.52035 -3.24925 0.01 
226 1 23 0.209287 0.06499 0.151991 0.0814591 0.159451 -0.0071182 0 0 0 -3.89656 -6.52035 -3.24925 0.01 
227 1 23 0.208477 0.067712 0.160531 0.0346186 0.19536 -0.0230062 0 0 0 -3.89656 -6.52035 -3.24925 0.01 
228 1 23 0.207667 0.070434 0.169072 -0.0122219 0.23127 -0.0388942 0 0 0 -3.89656 -6.52035 -3.24925 0.01 
229 1 23 0.206857 0.073156 0.177612 -0.0590624 0.267179 -0.0547822 0 0 0 -3.89656 -6.52035 -3.24925 0.01 
230 1 23 0.206047 0.075878 0.186152 -0.105903 0.303088 -0.0706702 0 0 0 -3.89656 -6.52035 -3.24925 0.01 
231 1 24 0.158962 0.0215281 0.00992477 0.0177831 -0.0469991 0.00176517 0.0963295 -0.0207127 0.513416 4.59043 1.71877 18.2871 0.01 
232 1 24 0.162316 0.0199379 0.0181237 0.0609552 -0.0233033 -0.011299 0 0 0 4.59043 1.71877 18.2871 0.01 
233 1 24 0.16567 0.0183477 0.0263227 0.104127 0.000392504 -0.0243632 0 0 0 4.59043 1.71877 18.2871 0.01 
234 1 24 0.169024 0.0167576 0.0345216 0.147299 0.0240883 -0.0374273 0 0 0 4.59043 1.71877 18.2871 0.01 
235 1 24 0.172378 0.0151674 0.0427206 0.190472 0.0477841 -0.0504915 0 0 0 4.59043 1.71877 18.2871 0.01 
236 1 24 0.175731 0.0135772 0.0509196 0.233644 0.0714799 -0.0635557 0 0 0 4.59043 1.71877 18.2871 0.01 
237 1 24 0.179085 0.011987 0.0591185 0.276816 0.0951758 -0.0766198 0 0 0 4.59043 1.71877 18.2871 0.01 
238 1 24 0.182439 0.0103968 0.0673175 0.319988 0.118872 -0.089684 0 0 0 4.59043 1.71877 18.2871 0.01 
239 1 24 0.185793 0.00880662 0.0755164 0.36316 0.142567 -0.102748 0 0 0 4.59043 1.71877 18.2871 0.01 
240 1 24 0.189147 0.00721643 0.0837154 0.406332 0.166263 -0.115812 -0.135824 0.199252 -0.006732 4.59043 1.71877 18.2871 0.01 
241 1 25 0.135649 -0.180733 0.110063 0.0444759 -0.221774 0.00418244 -0.00364383 -0.00884484 0.0343585 -5.80358 0.989666 5.41672 0.01 
242 1 25 0.136153 -0.178769 0.118832 0.0425146 -0.168155 -0.0077154 0 0 0 -5.80358 0.989666 5.41672 0.01 
243 1 25 0.136657 -0.176805 0.1276 0.0405534 -0.114536 -0.0196132 0 0 0 -5.80358 0.989666 5.41672 0.01 
244 1 25 0.137161 -0.174841 0.136369 0.0385921 -0.0609174 -0.0315111 0 0 0 -5.80358 0.989666 5.41672 0.01 
245 1 25 0.137665 -0.172876 0.145138 0.0366308 -0.00729834 -0.0434089 0 0 0 -5.80358 0.989666 5.41672 0.01 
246 1 25 0.138169 -0.170912 0.153906 0.0346696 0.0463207 -0.0553068 0 0 0 -5.80358 0.989666 5.41672 0.01 
247 1 25 0.138673 -0.168948 0.162675 0.0327083 0.0999397 -0.0672046 0 0 0 -5.80358 0.989666 5.41672 0.01 
248 1 25 0.139177 -0.166984 0.171443 0.030747 0.153559 -0.0791024 0 0 0 -5.80358 0.989666 5.41672 0.01 
249 1 25 0.139681 -0.16502 0.180212 0.0287858 0.207178 -0.0910003 0 0 0 -5.80358 0.989666 5.41672 0.01 
250 1 25 0.140185 -0.163056 0.18898 0.0268245 0.260797 -0.102898 0 0 0 -5.80358 0.989666 5.41672 0.01 
251 1 26 -0.00665653 -0.171745 0.0097923 0.00876845 -0.0612967 0.0335404 -0.688882 0.517879 1.72367 4.89893 -0.242034 2.92713 0.01 
252 1 26 -0.00529708 -0.173949 0.0184115 0.0131356 -0.0995426 0.023069 0 0 0 4.89893 -0.242034 2.92713 0.01 
253 1 26 -0.00393763 -0.176154 0.0270308 0.0175027 -0.137788 0.0125976 0 0 0 4.89893 -0.242034 2.92713 0.01 
254 1 26 -0.00257819 -0.178358 0.03565 0.0218699 -0.176034 0.00212621 0.193239 -0.229853 -0.385804 4.89893 -0.242034 2.92713 0.01 
255 1 26 -0.00121874 -0.180563 0.0442693 0.026237 -0.21428 -0.00834518 0.447387 -0.607594 -0.953243 4.89893 -0.242034 2.92713 0.01 
256 1 26 0.000140711 -0.182768 0.0528885 0.0306042 -0.252526 -0.0188166 0.117353 -0.162933 -0.242816 4.89893 -0.242034 2.92713 0.01 
257 1 26 0.00150016 -0.184972 0.0615078 0.0349713 -0.290772 -0.0292879 0 0 0 4.89893 -0.242034 2.92713 0.01 
258 1 26 0.00285961 -0.187177 0.070127 0.0393385 -0.329017 -0.0397593 0 0 0 4.89893 -0.242034 2.92713 0.01 
259 1 26 0.00421905 -0.189382 0.0787463 0.0437056 -0.367263 -0.0502307 0 0 0 4.89893 -0.242034 2.92713 0.01 
260 1 26 0.0055785 -0.191586 0.0873655 0.0480728 -0.405509 -0.0607021 -0.923223 0.399764 0.319556 4.89893 -0.242034 2.92713 0.01 
261 1 27 -0.119962 0.189082 0.11284 0.00406949 0.419889 -0.170836 0 0 0 7.28243 -5.44656 6.58592 0.01 
262 1 27 -0.122864 0.183039 0.118845 0.0111587 0.357045 -0.230647 0 0 0 7.28243 -5.44656 6.58592 0.01 
263 1 27 -0.125766 0.176997 0.12485 0.0182479 0.294201 -0.290458 0 0 0 7.28243 -5.44656 6.58592 0.01 
264 1 27 -0.128667 0.170954 0.130856 0.0253371 0.231357 -0.350269 -0.792243 0.10482 0.501504 7.28243 -5.44656 6.58592 0.01 