ITEM: TIMESTEP
40000
ITEM: NUMBER OF ATOMS
6300
ITEM: BOX BOUNDS mm mm mm
-0.383496 0.400384
-0.396988 0.399926
0 0.5
ITEM: ATOMS id type mol x y z vx vy vz fx fy fz omegax omegay omegaz radius 
1 1 1 -0.158284 -0.114838 0.0792436 -0.246841 -0.0908259 -0.0901341 0 0 0 1.41959 -4.45716 1.962 0.01 
2 1 1 -0.157936 -0.122898 0.0832325 -0.248806 -0.0958056 -0.100025 0 0 0 1.41959 -4.45716 1.962 0.01 
3 1 1 -0.157588 -0.130958 0.0872214 -0.25077 -0.100785 -0.109916 -0.340563 -0.127595 -0.45967 1.41959 -4.45716 1.962 0.01 
4 1 1 -0.15724 -0.139019 0.0912102 -0.252735 -0.105765 -0.119807 -0.0289353 0.00617946 1.1448 1.41959 -4.45716 1.962 0.01 
5 1 1 -0.156892 -0.147079 0.0951991 -0.2547 -0.110745 -0.129698 0 0 0 1.41959 -4.45716 1.962 0.01 
6 1 1 -0.156543 -0.155139 0.099188 -0.256665 -0.115724 -0.139589 0 0 0 1.41959 -4.45716 1.962 0.01 
7 1 1 -0.156195 -0.163199 0.103177 -0.25863 -0.120704 -0.14948 0 0 0 1.41959 -4.45716 1.962 0.01 
8 1 1 -0.155847 -0.17126 0.107166 -0.260594 -0.125683 -0.15937 0 0 0 1.41959 -4.45716 1.962 0.01 
9 1 1 -0.155499 -0.17932 0.111155 -0.262559 -0.130663 -0.169261 0 0 0 1.41959 -4.45716 1.962 0.01 
10 1 1 -0.155151 -0.18738 0.115143 -0.264524 -0.135643 -0.179152 0 0 0 1.41959 -4.45716 1.962 0.01 
11 1 2 -0.021047 -0.128124 0.0225942 0.0226629 -0.00751921 -0.0279788 -0.842947 -0.490174 -0.60849 0.866251 -5.34336 5.80601 0.01 
12 1 2 -0.0247122 -0.131345 0.0301566 0.000958216 -0.0353499 -0.0503535 1.15456 1.3053 2.15734 0.866251 -5.34336 5.80601 0.01 
13 1 2 -0.0283773 -0.134566 0.0377189 -0.0207465 -0.0631807 -0.0727282 0 0 0 0.866251 -5.34336 5.80601 0.01 
14 1 2 -0.0320424 -0.137788 0.0452813 -0.0424512 -0.0910114 -0.0951029 -0.234817 -0.912688 -0.932985 0.866251 -5.34336 5.80601 0.01 
15 1 2 -0.0357076 -0.141009 0.0528436 -0.0641559 -0.118842 -0.117478 0 0 0 0.866251 -5.34336 5.80601 0.01 
16 1 2 -0.0393727 -0.144231 0.060406 -0.0858606 -0.146673 -0.139852 0 0 0 0.866251 -5.34336 5.80601 0.01 
17 1 2 -0.0430379 -0.147452 0.0679683 -0.107565 -0.174504 -0.162227 0 0 0 0.866251 -5.34336 5.80601 0.01 
18 1 2 -0.046703 -0.150674 0.0755307 -0.12927 -0.202334 -0.184602 0 0 0 0.866251 -5.34336 5.80601 0.01 
19 1 2 -0.0503681 -0.153895 0.083093 -0.150975 -0.230165 -0.206977 0 0 0 0.866251 -5.34336 5.80601 0.01 
20 1 2 -0.0540333 -0.157116 0.0906554 -0.172679 -0.257996 -0.229351 0 0 0 0.866251 -5.34336 5.80601 0.01 
21 1 3 -0.0283571 -0.0413866 0.0110157 -0.0107592 0.0143065 0.0167433 -0.345823 -0.391765 -0.273561 1.47697 -0.183515 -0.941825 0.01 
22 1 3 -0.0327245 -0.0470727 0.0164558 -0.0171129 0.010385 0.00754362 0 0 0 1.47697 -0.183515 -0.941825 0.01 
23 1 3 -0.0370919 -0.0527587 0.0218958 -0.0234665 0.00646357 -0.00165606 0.633503 0.139495 1.05891 1.47697 -0.183515 -0.941825 0.01 
24 1 3 -0.0414593 -0.0584448 0.0273359 -0.0298201 0.0025421 -0.0108557 -0.260778 0.191064 -0.602845 1.47697 -0.183515 -0.941825 0.01 
25 1 3 -0.0458267 -0.0641309 0.0327759 -0.0361738 -0.00137936 -0.0200554 0 0 0 1.47697 -0.183515 -0.941825 0.01 
26 1 3 -0.0501941 -0.069817 0.038216 -0.0425274 -0.00530083 -0.0292551 0 0 0 1.47697 -0.183515 -0.941825 0.01 
27 1 3 -0.0545615 -0.0755031 0.043656 -0.048881 -0.00922229 -0.0384548 0.0208054 0.0672148 0.198141 1.47697 -0.183515 -0.941825 0.01 
28 1 3 -0.0589289 -0.0811892 0.0490961 -0.0552346 -0.0131438 -0.0476545 0 0 0 1.47697 -0.183515 -0.941825 0.01 
29 1 3 -0.0632963 -0.0868753 0.0545361 -0.0615883 -0.0170652 -0.0568541 0 0 0 1.47697 -0.183515 -0.941825 0.01 
30 1 3 -0.0676637 -0.0925614 0.0599761 -0.0679419 -0.0209867 -0.0660538 -0.0148252 0.011048 0.0108488 1.47697 -0.183515 -0.941825 0.01 
31 1 4 -0.0921226 0.12276 0.0110418 -0.0450912 -0.00212418 0.00446216 -1.26344 1.38144 -6.06425 -2.36467 0.279548 2.99422 0.01 
32 1 4 -0.0954018 0.129037 0.016596 -0.0623324 0.00119101 -0.00946351 0 0 0 -2.36467 0.279548 2.99422 0.01 
33 1 4 -0.0986811 0.135313 0.0221502 -0.0795736 0.00450621 -0.0233892 1.65069 -2.68146 7.08389 -2.36467 0.279548 2.99422 0.01 
34 1 4 -0.10196 0.14159 0.0277045 -0.0968147 0.0078214 -0.0373149 0.164713 0.130262 2.02853 -2.36467 0.279548 2.99422 0.01 
35 1 4 -0.10524 0.147867 0.0332587 -0.114056 0.0111366 -0.0512405 0 0 0 -2.36467 0.279548 2.99422 0.01 
36 1 4 -0.108519 0.154144 0.0388129 -0.131297 0.0144518 -0.0651662 0 0 0 -2.36467 0.279548 2.99422 0.01 
37 1 4 -0.111798 0.16042 0.0443671 -0.148538 0.017767 -0.0790919 0.0868888 0.040403 0.0618516 -2.36467 0.279548 2.99422 0.01 
38 1 4 -0.115077 0.166697 0.0499214 -0.165779 0.0210822 -0.0930175 0.229983 0.0897933 0.147092 -2.36467 0.279548 2.99422 0.01 
39 1 4 -0.118356 0.172974 0.0554756 -0.183021 0.0243974 -0.106943 -0.423357 0.197004 -0.0921582 -2.36467 0.279548 2.99422 0.01 
40 1 4 -0.121636 0.17925 0.0610298 -0.200262 0.0277126 -0.120869 -0.144244 0.0280693 -2.59731 -2.36467 0.279548 2.99422 0.01 
41 1 5 0.0801505 -0.136053 0.00986032 0.0147429 -0.00451714 -0.000987016 0.00299813 0.332246 1.40542 1.30766 0.859139 1.03496 0.01 
42 1 5 0.0818957 -0.135482 0.018671 0.0217216 -0.0142324 -0.00173978 -0.0145931 0.0421747 -0.000620068 1.30766 0.859139 1.03496 0.01 
43 1 5 0.0836408 -0.134911 0.0274817 0.0287003 -0.0239476 -0.00249255 -0.157897 -0.426395 -0.192097 1.30766 0.859139 1.03496 0.01 
44 1 5 0.085386 -0.13434 0.0362924 0.0356791 -0.0336628 -0.00324532 0.424801 0.0986717 -0.196778 1.30766 0.859139 1.03496 0.01 
45 1 5 0.0871312 -0.133769 0.0451031 0.0426578 -0.043378 -0.00399809 0 0 0 1.30766 0.859139 1.03496 0.01 
46 1 5 0.0888764 -0.133198 0.0539138 0.0496365 -0.0530932 -0.00475085 0 0 0 1.30766 0.859139 1.03496 0.01 
47 1 5 0.0906216 -0.132627 0.0627245 0.0566152 -0.0628085 -0.00550362 0 0 0 1.30766 0.859139 1.03496 0.01 
48 1 5 0.0923668 -0.132056 0.0715352 0.0635939 -0.0725237 -0.00625639 0 0 0 1.30766 0.859139 1.03496 0.01 
49 1 5 0.094112 -0.131485 0.0803459 0.0705726 -0.0822389 -0.00700916 0 0 0 1.30766 0.859139 1.03496 0.01 
50 1 5 0.0958572 -0.130914 0.0891566 0.0775514 -0.0919541 -0.00776192 -0.166256 0.0220401 -0.290969 1.30766 0.859139 1.03496 0.01 
51 1 6 0.191783 -0.0398751 0.0209996 0.0207401 0.0046171 -0.19295 -0.02109 0.201614 0.0851699 8.72855 10.4351 0.684059 0.01 
52 1 6 0.184982 -0.0457531 0.0214399 0.0293558 -0.00387855 -0.173286 -0.00787787 0.00582838 0.0182345 8.72855 10.4351 0.684059 0.01 
53 1 6 0.178181 -0.0516312 0.0218802 0.0379715 -0.0123742 -0.153623 0 0 0 8.72855 10.4351 0.684059 0.01 
54 1 6 0.17138 -0.0575092 0.0223205 0.0465872 -0.0208699 -0.133959 0 0 0 8.72855 10.4351 0.684059 0.01 
55 1 6 0.164579 -0.0633873 0.0227608 0.0552028 -0.0293655 -0.114296 0 0 0 8.72855 10.4351 0.684059 0.01 
56 1 6 0.157778 -0.0692653 0.0232012 0.0638185 -0.0378612 -0.0946328 0 0 0 8.72855 10.4351 0.684059 0.01 
57 1 6 0.150977 -0.0751434 0.0236415 0.0724342 -0.0463568 -0.0749695 0.499671 -0.122908 0.3884 8.72855 10.4351 0.684059 0.01 
58 1 6 0.144176 -0.0810214 0.0240818 0.0810499 -0.0548525 -0.0553061 -0.268017 0.372958 0.388748 8.72855 10.4351 0.684059 0.01 
59 1 6 0.137375 -0.0868995 0.0245221 0.0896656 -0.0633481 -0.0356428 0 0 0 8.72855 10.4351 0.684059 0.01 
60 1 6 0.130574 -0.0927775 0.0249624 0.0982813 -0.0718438 -0.0159794 0 0 0 8.72855 10.4351 0.684059 0.01 
61 1 7 -0.0459374 0.22789 0.00983534 -0.0088574 0.0393649 -0.00319601 0.190378 0.990163 1.24487 -2.7404 -1.7555 3.43627 0.01 
62 1 7 -0.0450548 0.234529 0.0158464 -0.0422263 0.0588703 -0.0198426 0.419137 0.192512 -0.293158 -2.7404 -1.7555 3.43627 0.01 
63 1 7 -0.0441723 0.241169 0.0218575 -0.0755951 0.0783757 -0.0364893 0.361943 0.12454 -0.182692 -2.7404 -1.7555 3.43627 0.01 
64 1 7 -0.0432897 0.247809 0.0278685 -0.108964 0.0978811 -0.0531359 -0.0637598 0.0223281 -0.0867807 -2.7404 -1.7555 3.43627 0.01 
65 1 7 -0.0424071 0.254449 0.0338796 -0.142333 0.117387 -0.0697825 -0.770664 -0.314638 0.0470779 -2.7404 -1.7555 3.43627 0.01 
66 1 7 -0.0415246 0.261089 0.0398906 -0.175702 0.136892 -0.0864291 -0.751029 -0.508803 0.153417 -2.7404 -1.7555 3.43627 0.01 
67 1 7 -0.040642 0.267729 0.0459017 -0.209071 0.156397 -0.103076 -0.129351 -0.163293 0.0820027 -2.7404 -1.7555 3.43627 0.01 
68 1 7 -0.0397595 0.274369 0.0519127 -0.242439 0.175903 -0.119722 0 0 0 -2.7404 -1.7555 3.43627 0.01 
69 1 7 -0.0388769 0.281009 0.0579238 -0.275808 0.195408 -0.136369 0 0 0 -2.7404 -1.7555 3.43627 0.01 
70 1 7 -0.0379943 0.287649 0.0639349 -0.309177 0.214914 -0.153016 0 0 0 -2.7404 -1.7555 3.43627 0.01 
71 1 8 0.156128 -0.195268 0.0794048 0.284493 -0.234402 -0.327254 0.352034 0.343688 0.397672 3.79913 10.351 -3.76471 0.01 
72 1 8 0.164967 -0.193833 0.0803055 0.299218 -0.2711 -0.413295 0 0 0 3.79913 10.351 -3.76471 0.01 
73 1 8 0.173806 -0.192398 0.0812061 0.313943 -0.307799 -0.499337 0 0 0 3.79913 10.351 -3.76471 0.01 
74 1 8 0.182646 -0.190963 0.0821067 0.328667 -0.344497 -0.585378 0 0 0 3.79913 10.351 -3.76471 0.01 
75 1 8 0.191485 -0.189528 0.0830073 0.343392 -0.381195 -0.671419 0 0 0 3.79913 10.351 -3.76471 0.01 
76 1 8 0.200324 -0.188093 0.0839079 0.358117 -0.417893 -0.75746 0 0 0 3.79913 10.351 -3.76471 0.01 
77 1 8 0.209163 -0.186658 0.0848086 0.372842 -0.454591 -0.843501 0 0 0 3.79913 10.351 -3.76471 0.01 
78 1 8 0.218002 -0.185222 0.0857092 0.387567 -0.49129 -0.929542 0 0 0 3.79913 10.351 -3.76471 0.01 
79 1 8 0.226841 -0.183787 0.0866098 0.402291 -0.527988 -1.01558 0 0 0 3.79913 10.351 -3.76471 0.01 
80 1 8 0.23568 -0.182352 0.0875104 0.417016 -0.564686 -1.10162 0 0 0 3.79913 10.351 -3.76471 0.01 
81 1 9 -0.134847 0.0285362 0.046508 -0.0989824 -0.052019 -0.0887124 0.641074 1.23274 2.36258 -4.5725 -0.730266 -2.11047 0.01 
82 1 9 -0.128848 0.0302486 0.0529944 -0.100105 -0.0350218 -0.0921612 0 0 0 -4.5725 -0.730266 -2.11047 0.01 
83 1 9 -0.122848 0.031961 0.0594808 -0.101228 -0.0180245 -0.09561 0.0384666 -0.156522 -0.0143526 -4.5725 -0.730266 -2.11047 0.01 
84 1 9 -0.116849 0.0336734 0.0659672 -0.102351 -0.0010273 -0.0990588 0.586756 -1.0742 0.264337 -4.5725 -0.730266 -2.11047 0.01 
85 1 9 -0.110849 0.0353858 0.0724536 -0.103474 0.0159699 -0.102508 0 0 0 -4.5725 -0.730266 -2.11047 0.01 
86 1 9 -0.10485 0.0370983 0.07894 -0.104596 0.0329672 -0.105956 0 0 0 -4.5725 -0.730266 -2.11047 0.01 
87 1 9 -0.09885 0.0388107 0.0854264 -0.105719 0.0499644 -0.109405 0 0 0 -4.5725 -0.730266 -2.11047 0.01 
88 1 9 -0.0928505 0.0405231 0.0919128 -0.106842 0.0669616 -0.112854 0 0 0 -4.5725 -0.730266 -2.11047 0.01 
89 1 9 -0.086851 0.0422355 0.0983992 -0.107965 0.0839589 -0.116303 0 0 0 -4.5725 -0.730266 -2.11047 0.01 
90 1 9 -0.0808514 0.0439479 0.104886 -0.109087 0.100956 -0.119752 -0.293055 0.117287 0.462028 -4.5725 -0.730266 -2.11047 0.01 
91 1 10 0.0803115 0.2749 0.0741769 0.234132 0.537857 -0.459037 0.0545442 -0.00419657 0.287714 4.98899 -10.8274 -2.87911 0.01 
92 1 10 0.0727104 0.278218 0.0776713 0.205851 0.542308 -0.524783 0 0 0 4.98899 -10.8274 -2.87911 0.01 
93 1 10 0.0651092 0.281537 0.0811657 0.17757 0.546759 -0.590528 0 0 0 4.98899 -10.8274 -2.87911 0.01 
94 1 10 0.057508 0.284855 0.0846601 0.149289 0.551211 -0.656274 0 0 0 4.98899 -10.8274 -2.87911 0.01 
95 1 10 0.0499069 0.288173 0.0881545 0.121007 0.555662 -0.722019 0 0 0 4.98899 -10.8274 -2.87911 0.01 
96 1 10 0.0423057 0.291492 0.0916489 0.0927262 0.560113 -0.787765 0 0 0 4.98899 -10.8274 -2.87911 0.01 
97 1 10 0.0347046 0.29481 0.0951433 0.064445 0.564564 -0.85351 0 0 0 4.98899 -10.8274 -2.87911 0.01 
98 1 10 0.0271034 0.298128 0.0986376 0.0361637 0.569015 -0.919256 0 0 0 4.98899 -10.8274 -2.87911 0.01 
99 1 10 0.0195022 0.301447 0.102132 0.00788248 0.573466 -0.985001 0 0 0 4.98899 -10.8274 -2.87911 0.01 
100 1 10 0.0119011 0.304765 0.105626 -0.0203988 0.577917 -1.05075 0 0 0 4.98899 -10.8274 -2.87911 0.01 
101 1 11 -0.24902 -0.0912017 0.0154758 -0.0612994 -0.0511435 0.0303839 0.402793 -0.335838 -1.15221 1.33717 -22.7828 6.81789 0.01 
102 1 11 -0.251362 -0.0988406 0.0196183 -0.103595 -0.0726529 -0.0331971 0 0 0 1.33717 -22.7828 6.81789 0.01 
103 1 11 -0.253704 -0.10648 0.0237607 -0.14589 -0.0941624 -0.0967781 -0.468851 0.921752 2.45652 1.33717 -22.7828 6.81789 0.01 
104 1 11 -0.256047 -0.114118 0.0279032 -0.188185 -0.115672 -0.160359 0 0 0 1.33717 -22.7828 6.81789 0.01 
105 1 11 -0.258389 -0.121757 0.0320457 -0.23048 -0.137181 -0.22394 0 0 0 1.33717 -22.7828 6.81789 0.01 
106 1 11 -0.260732 -0.129396 0.0361881 -0.272776 -0.158691 -0.287521 0.329789 -0.148517 0.139917 1.33717 -22.7828 6.81789 0.01 
107 1 11 -0.263074 -0.137035 0.0403306 -0.315071 -0.1802 -0.351102 -0.025957 0.0292841 0.0377227 1.33717 -22.7828 6.81789 0.01 
108 1 11 -0.265416 -0.144674 0.044473 -0.357366 -0.20171 -0.414683 0 0 0 1.33717 -22.7828 6.81789 0.01 
109 1 11 -0.267759 -0.152313 0.0486155 -0.399661 -0.223219 -0.478264 0 0 0 1.33717 -22.7828 6.81789 0.01 
110 1 11 -0.270101 -0.159952 0.0527579 -0.441957 -0.244728 -0.541845 0 0 0 1.33717 -22.7828 6.81789 0.01 
111 1 12 0.121747 0.0456788 0.0455725 0.0512962 0.0182875 -0.0732645 0.00803418 0.322177 0.335552 -2.27815 -0.960445 -3.10067 0.01 
112 1 12 0.124092 0.0495058 0.0533736 0.0556699 0.0287893 -0.0797309 0.0491067 0.00414359 -0.0692421 -2.27815 -0.960445 -3.10067 0.01 
113 1 12 0.126437 0.0533328 0.0611746 0.0600436 0.039291 -0.0861973 0 0 0 -2.27815 -0.960445 -3.10067 0.01 
114 1 12 0.128782 0.0571597 0.0689757 0.0644172 0.0497927 -0.0926637 0 0 0 -2.27815 -0.960445 -3.10067 0.01 
115 1 12 0.131126 0.0609867 0.0767768 0.0687909 0.0602944 -0.0991302 -1.37087 -2.31581 3.39216 -2.27815 -0.960445 -3.10067 0.01 
116 1 12 0.133471 0.0648136 0.0845778 0.0731646 0.0707962 -0.105597 0 0 0 -2.27815 -0.960445 -3.10067 0.01 
117 1 12 0.135816 0.0686406 0.0923789 0.0775383 0.0812979 -0.112063 0 0 0 -2.27815 -0.960445 -3.10067 0.01 
118 1 12 0.13816 0.0724676 0.10018 0.081912 0.0917996 -0.118529 0.911246 -0.166541 -1.22824 -2.27815 -0.960445 -3.10067 0.01 
119 1 12 0.140505 0.0762945 0.107981 0.0862856 0.102301 -0.124996 0 0 0 -2.27815 -0.960445 -3.10067 0.01 
120 1 12 0.14285 0.0801215 0.115782 0.0906593 0.112803 -0.131462 -0.0670511 0.0536194 0.0103749 -2.27815 -0.960445 -3.10067 0.01 
121 1 13 -0.00580367 0.294254 0.0637814 -0.207496 0.204587 0.0252753 -0.951801 -0.327112 0.444387 3.80046 -2.34691 1.93363 0.01 
122 1 13 -0.0101572 0.28871 0.0693778 -0.209911 0.1749 -0.00600884 0 0 0 3.80046 -2.34691 1.93363 0.01 
123 1 13 -0.0145107 0.283167 0.0749742 -0.212327 0.145213 -0.0372929 0 0 0 3.80046 -2.34691 1.93363 0.01 
124 1 13 -0.0188642 0.277624 0.0805706 -0.214743 0.115526 -0.068577 0 0 0 3.80046 -2.34691 1.93363 0.01 
125 1 13 -0.0232177 0.272081 0.086167 -0.217158 0.0858393 -0.0998611 0.200309 0.0510872 0.0598224 3.80046 -2.34691 1.93363 0.01 
126 1 13 -0.0275712 0.266538 0.0917634 -0.219574 0.0561523 -0.131145 0 0 0 3.80046 -2.34691 1.93363 0.01 
127 1 13 -0.0319248 0.260994 0.0973598 -0.22199 0.0264653 -0.162429 0 0 0 3.80046 -2.34691 1.93363 0.01 
128 1 13 -0.0362783 0.255451 0.102956 -0.224405 -0.00322168 -0.193713 0 0 0 3.80046 -2.34691 1.93363 0.01 
129 1 13 -0.0406318 0.249908 0.108553 -0.226821 -0.0329087 -0.224998 0 0 0 3.80046 -2.34691 1.93363 0.01 
130 1 13 -0.0449853 0.244365 0.114149 -0.229237 -0.0625957 -0.256282 0 0 0 3.80046 -2.34691 1.93363 0.01 
131 1 14 -0.0464301 0.126658 0.0139115 0.0244943 -0.0359772 0.0428937 0.355546 0.0893423 -0.397614 -2.12628 -6.32399 -2.57263 0.01 
132 1 14 -0.0464273 0.133599 0.0196408 0.0061183 -0.0238022 0.0281529 0.309077 -0.00210685 -0.264733 -2.12628 -6.32399 -2.57263 0.01 
133 1 14 -0.0464246 0.14054 0.0253701 -0.0122577 -0.0116271 0.0134122 -0.427063 0.175715 0.00441667 -2.12628 -6.32399 -2.57263 0.01 
134 1 14 -0.0464218 0.14748 0.0310995 -0.0306337 0.000547951 -0.00132852 -0.127995 -0.103539 0.421773 -2.12628 -6.32399 -2.57263 0.01 
135 1 14 -0.0464191 0.154421 0.0368288 -0.0490096 0.012723 -0.0160692 -0.150875 -0.0894096 0.461309 -2.12628 -6.32399 -2.57263 0.01 
136 1 14 -0.0464163 0.161362 0.0425581 -0.0673856 0.0248981 -0.03081 -0.161974 -0.0698251 0.45402 -2.12628 -6.32399 -2.57263 0.01 
137 1 14 -0.0464136 0.168303 0.0482874 -0.0857616 0.0370731 -0.0455507 -0.130775 -0.0786709 0.431409 -2.12628 -6.32399 -2.57263 0.01 
138 1 14 -0.0464108 0.175244 0.0540167 -0.104138 0.0492482 -0.0602914 -0.0618055 -0.0760592 0.383061 -2.12628 -6.32399 -2.57263 0.01 
139 1 14 -0.0464081 0.182185 0.059746 -0.122514 0.0614233 -0.0750322 -0.0140322 -0.0784228 0.313935 -2.12628 -6.32399 -2.57263 0.01 
140 1 14 -0.0464053 0.189125 0.0654754 -0.14089 0.0735983 -0.0897729 0.558998 0.069027 -1.17686 -2.12628 -6.32399 -2.57263 0.01 
141 1 15 -0.00844169 -0.0619217 0.00985538 0.00666424 -0.027105 0.00123645 -0.336627 0.770972 1.37796 -2.11612 -3.00992 2.74062 0.01 
142 1 15 -0.0131154 -0.0654092 0.0167106 -0.00441139 -0.0254075 -0.00545114 -0.175409 0.00804831 -0.322099 -2.11612 -3.00992 2.74062 0.01 
143 1 15 -0.0177892 -0.0688968 0.0235657 -0.015487 -0.02371 -0.0121387 -0.274143 -0.442301 -1.01911 -2.11612 -3.00992 2.74062 0.01 
144 1 15 -0.0224629 -0.0723843 0.0304209 -0.0265627 -0.0220125 -0.0188263 0.908503 0.0346752 0.264719 -2.11612 -3.00992 2.74062 0.01 
145 1 15 -0.0271366 -0.0758718 0.0372761 -0.0376383 -0.0203151 -0.0255139 0.820765 -0.591703 1.32502 -2.11612 -3.00992 2.74062 0.01 
146 1 15 -0.0318104 -0.0793593 0.0441313 -0.0487139 -0.0186176 -0.0322015 -0.0803656 0.0149059 -0.431856 -2.11612 -3.00992 2.74062 0.01 
147 1 15 -0.0364841 -0.0828468 0.0509865 -0.0597895 -0.0169201 -0.0388891 -0.0878155 0.114502 -0.312532 -2.11612 -3.00992 2.74062 0.01 
148 1 15 -0.0411578 -0.0863343 0.0578416 -0.0708652 -0.0152226 -0.0455767 0.0408444 0.0324668 -0.158154 -2.11612 -3.00992 2.74062 0.01 
149 1 15 -0.0458316 -0.0898218 0.0646968 -0.0819408 -0.0135252 -0.0522643 0 0 0 -2.11612 -3.00992 2.74062 0.01 
150 1 15 -0.0505053 -0.0933093 0.071552 -0.0930164 -0.0118277 -0.0589518 0 0 0 -2.11612 -3.00992 2.74062 0.01 
151 1 16 -0.04869 0.185495 0.0131734 -0.0797097 -0.0014062 -0.105884 -0.00490414 0.0281706 -0.0126061 -2.79566 -11.8408 -6.9015 0.01 
152 1 16 -0.0472825 0.192815 0.0182175 -0.0889195 0.00298121 -0.109681 0 0 0 -2.79566 -11.8408 -6.9015 0.01 
153 1 16 -0.0458749 0.200135 0.0232616 -0.0981294 0.00736862 -0.113477 -0.00992201 -0.0111716 0.0339965 -2.79566 -11.8408 -6.9015 0.01 
154 1 16 -0.0444674 0.207454 0.0283057 -0.107339 0.011756 -0.117274 -0.0157484 -0.0154633 0.0511965 -2.79566 -11.8408 -6.9015 0.01 
155 1 16 -0.0430599 0.214774 0.0333498 -0.116549 0.0161434 -0.121071 0.231821 -0.202193 0.354394 -2.79566 -11.8408 -6.9015 0.01 
156 1 16 -0.0416523 0.222093 0.0383939 -0.125759 0.0205309 -0.124867 -0.00607556 -0.0277021 0.0857851 -2.79566 -11.8408 -6.9015 0.01 
157 1 16 -0.0402448 0.229413 0.043438 -0.134969 0.0249183 -0.128664 -0.0249533 -0.0137833 0.0674872 -2.79566 -11.8408 -6.9015 0.01 
158 1 16 -0.0388372 0.236732 0.048482 -0.144178 0.0293057 -0.132461 -0.0245644 -0.0101543 0.0616318 -2.79566 -11.8408 -6.9015 0.01 
159 1 16 -0.0374297 0.244052 0.0535261 -0.153388 0.0336931 -0.136257 -0.0223934 -0.00628118 0.0516249 -2.79566 -11.8408 -6.9015 0.01 
160 1 16 -0.0360222 0.251372 0.0585702 -0.162598 0.0380805 -0.140054 -0.0304123 0.0198592 0.0578468 -2.79566 -11.8408 -6.9015 0.01 
161 1 17 0.0755651 0.0896624 0.00984997 -0.00331278 0.00472249 -0.0158657 0.722248 -0.182326 0.451501 -0.641257 0.704749 -0.887053 0.01 
162 1 17 0.08007 0.0879262 0.0174455 0.000500002 0.0055971 -0.0179271 0 0 0 -0.641257 0.704749 -0.887053 0.01 
163 1 17 0.0845748 0.0861899 0.025041 0.00431279 0.00647171 -0.0199886 0 0 0 -0.641257 0.704749 -0.887053 0.01 
164 1 17 0.0890797 0.0844537 0.0326365 0.00812557 0.00734632 -0.02205 -0.294712 0.198031 0.46145 -0.641257 0.704749 -0.887053 0.01 
165 1 17 0.0935846 0.0827175 0.040232 0.0119384 0.00822093 -0.0241114 -0.111327 0.0781123 0.216889 -0.641257 0.704749 -0.887053 0.01 
166 1 17 0.0980894 0.0809812 0.0478275 0.0157511 0.00909553 -0.0261728 0 0 0 -0.641257 0.704749 -0.887053 0.01 
167 1 17 0.102594 0.079245 0.055423 0.0195639 0.00997014 -0.0282343 0 0 0 -0.641257 0.704749 -0.887053 0.01 
168 1 17 0.107099 0.0775087 0.0630185 0.0233767 0.0108448 -0.0302957 0 0 0 -0.641257 0.704749 -0.887053 0.01 
169 1 17 0.111604 0.0757725 0.070614 0.0271895 0.0117194 -0.0323571 0 0 0 -0.641257 0.704749 -0.887053 0.01 
170 1 17 0.116109 0.0740363 0.0782095 0.0310023 0.012594 -0.0344185 0.215573 0.252347 -1.1124 -0.641257 0.704749 -0.887053 0.01 
171 1 18 -0.328673 -0.0435048 0.00988493 -0.0117913 -0.0658657 -0.0190091 -0.0821564 0.701571 1.41273 -0.701882 -1.43655 11.7204 0.01 
172 1 18 -0.32814 -0.0400963 0.0181974 -0.0636814 -0.0537799 -0.0206353 0.065833 -0.15289 0.0282873 -0.701882 -1.43655 11.7204 0.01 
173 1 18 -0.327606 -0.0366878 0.0265099 -0.115572 -0.0416941 -0.0222614 0 0 0 -0.701882 -1.43655 11.7204 0.01 
174 1 18 -0.327073 -0.0332794 0.0348224 -0.167462 -0.0296083 -0.0238875 0 0 0 -0.701882 -1.43655 11.7204 0.01 
175 1 18 -0.32654 -0.0298709 0.0431349 -0.219352 -0.0175226 -0.0255137 0 0 0 -0.701882 -1.43655 11.7204 0.01 
176 1 18 -0.326006 -0.0264624 0.0514474 -0.271242 -0.00543681 -0.0271398 0 0 0 -0.701882 -1.43655 11.7204 0.01 
177 1 18 -0.325473 -0.0230539 0.0597599 -0.323132 0.00664896 -0.028766 0 0 0 -0.701882 -1.43655 11.7204 0.01 
178 1 18 -0.32494 -0.0196454 0.0680724 -0.375022 0.0187347 -0.0303921 0 0 0 -0.701882 -1.43655 11.7204 0.01 
179 1 18 -0.324406 -0.0162369 0.076385 -0.426912 0.0308205 -0.0320182 0 0 0 -0.701882 -1.43655 11.7204 0.01 
180 1 18 -0.323873 -0.0128284 0.0846975 -0.478802 0.0429063 -0.0336444 -0.174979 -0.232085 -0.46109 -0.701882 -1.43655 11.7204 0.01 
181 1 19 0.0177679 0.231782 0.0751619 0.011622 0.161606 -0.11695 0.78886 -0.984088 1.4882 0.08314 1.00413 -0.683854 0.01 
182 1 19 0.0176765 0.224673 0.0806804 0.0123017 0.16121 -0.117449 -0.98749 0.736963 0.333756 0.08314 1.00413 -0.683854 0.01 
183 1 19 0.017585 0.217564 0.0861988 0.0129815 0.160814 -0.117948 0 0 0 0.08314 1.00413 -0.683854 0.01 
184 1 19 0.0174936 0.210455 0.0917173 0.0136612 0.160418 -0.118448 0.370709 -0.754437 -1.3646 0.08314 1.00413 -0.683854 0.01 
185 1 19 0.0174021 0.203346 0.0972358 0.0143409 0.160021 -0.118947 0 0 0 0.08314 1.00413 -0.683854 0.01 
186 1 19 0.0173106 0.196237 0.102754 0.0150206 0.159625 -0.119446 0 0 0 0.08314 1.00413 -0.683854 0.01 
187 1 19 0.0172192 0.189128 0.108273 0.0157004 0.159229 -0.119945 0 0 0 0.08314 1.00413 -0.683854 0.01 
188 1 19 0.0171277 0.182019 0.113791 0.0163801 0.158833 -0.120444 0 0 0 0.08314 1.00413 -0.683854 0.01 
189 1 19 0.0170363 0.17491 0.11931 0.0170598 0.158436 -0.120944 0.121585 0.349278 0.501109 0.08314 1.00413 -0.683854 0.01 
190 1 19 0.0169448 0.167801 0.124828 0.0177396 0.15804 -0.121443 0 0 0 0.08314 1.00413 -0.683854 0.01 
191 1 20 -0.00910012 0.196566 0.0112655 -0.0610294 0.0593491 -0.0975384 0 0 0 2.10583 6.4056 5.74934 0.01 
192 1 20 -0.00749042 0.203888 0.0162448 -0.0712322 0.0581183 -0.0924301 -0.100447 -0.0666921 0.0754732 2.10583 6.4056 5.74934 0.01 
193 1 20 -0.00588072 0.21121 0.0212241 -0.081435 0.0568875 -0.0873218 0 0 0 2.10583 6.4056 5.74934 0.01 
194 1 20 -0.00427102 0.218532 0.0262034 -0.0916379 0.0556567 -0.0822135 0 0 0 2.10583 6.4056 5.74934 0.01 
195 1 20 -0.00266131 0.225855 0.0311827 -0.101841 0.0544259 -0.0771052 0 0 0 2.10583 6.4056 5.74934 0.01 
196 1 20 -0.00105161 0.233177 0.036162 -0.112043 0.0531951 -0.0719969 -0.0670175 0.0523881 0.0535359 2.10583 6.4056 5.74934 0.01 
197 1 20 0.000558089 0.240499 0.0411412 -0.122246 0.0519643 -0.0668886 0.228518 0.621243 -0.45143 2.10583 6.4056 5.74934 0.01 
198 1 20 0.00216779 0.247821 0.0461205 -0.132449 0.0507335 -0.0617803 0.327014 0.00906134 0.0335377 2.10583 6.4056 5.74934 0.01 
199 1 20 0.00377749 0.255144 0.0510998 -0.142652 0.0495027 -0.056672 -0.360983 -0.490274 -0.343688 2.10583 6.4056 5.74934 0.01 
200 1 20 0.0053872 0.262466 0.0560791 -0.152855 0.0482719 -0.0515637 -0.295787 -0.611226 0.8464 2.10583 6.4056 5.74934 0.01 
201 1 21 0.0117445 0.00421457 0.0106394 -0.0156222 -0.000914403 -0.0395648 -0.0100224 0.025619 -0.00458099 -1.36108 4.14534 5.16621 0.01 
202 1 21 0.0095666 0.0109099 0.0162456 -0.0269721 -0.00453537 -0.0396495 0.0411212 0.00842288 0.0282655 -1.36108 4.14534 5.16621 0.01 
203 1 21 0.00738871 0.0176052 0.0218518 -0.038322 -0.00815634 -0.0397343 0.263767 0.0589742 0.156366 -1.36108 4.14534 5.16621 0.01 
204 1 21 0.00521082 0.0243006 0.027458 -0.0496719 -0.0117773 -0.0398191 -0.272577 0.0629192 0.152665 -1.36108 4.14534 5.16621 0.01 
205 1 21 0.00303293 0.0309959 0.0330642 -0.0610218 -0.0153983 -0.0399038 0 0 0 -1.36108 4.14534 5.16621 0.01 
206 1 21 0.000855044 0.0376912 0.0386704 -0.0723717 -0.0190192 -0.0399886 0 0 0 -1.36108 4.14534 5.16621 0.01 
207 1 21 -0.00132285 0.0443865 0.0442766 -0.0837216 -0.0226402 -0.0400734 0 0 0 -1.36108 4.14534 5.16621 0.01 
208 1 21 -0.00350074 0.0510819 0.0498828 -0.0950715 -0.0262612 -0.0401582 0 0 0 -1.36108 4.14534 5.16621 0.01 
209 1 21 -0.00567862 0.0577772 0.0554889 -0.106421 -0.0298821 -0.0402429 0 0 0 -1.36108 4.14534 5.16621 0.01 
210 1 21 -0.00785651 0.0644725 0.0610951 -0.117771 -0.0335031 -0.0403277 0.119181 -0.212307 -0.184571 -1.36108 4.14534 5.16621 0.01 
211 1 22 0.014635 0.280693 0.0678576 -0.0441646 0.0335354 -0.0196006 -0.261829 -0.342646 0.641492 3.4794 0.340942 -4.24407 0.01 
212 1 22 0.0104848 0.274814 0.0732631 -0.0672703 0.0323415 -0.0386392 0 0 0 3.4794 0.340942 -4.24407 0.01 
213 1 22 0.00633454 0.268936 0.0786686 -0.090376 0.0311477 -0.0576777 0.00620711 -0.124699 -0.539039 3.4794 0.340942 -4.24407 0.01 
214 1 22 0.00218429 0.263057 0.084074 -0.113482 0.0299538 -0.0767163 0 0 0 3.4794 0.340942 -4.24407 0.01 
215 1 22 -0.00196596 0.257179 0.0894795 -0.136587 0.02876 -0.0957549 0 0 0 3.4794 0.340942 -4.24407 0.01 
216 1 22 -0.00611621 0.2513 0.094885 -0.159693 0.0275661 -0.114793 0 0 0 3.4794 0.340942 -4.24407 0.01 
217 1 22 -0.0102665 0.245422 0.10029 -0.182799 0.0263723 -0.133832 0 0 0 3.4794 0.340942 -4.24407 0.01 
218 1 22 -0.0144167 0.239543 0.105696 -0.205904 0.0251784 -0.152871 0 0 0 3.4794 0.340942 -4.24407 0.01 
219 1 22 -0.018567 0.233665 0.111101 -0.22901 0.0239846 -0.171909 0 0 0 3.4794 0.340942 -4.24407 0.01 
220 1 22 -0.0227172 0.227787 0.116507 -0.252116 0.0227907 -0.190948 -0.0651867 0.121564 -0.140811 3.4794 0.340942 -4.24407 0.01 
221 1 23 0.286495 0.060628 0.0703243 0.262227 0.0851521 -0.134802 -3.20503 -0.526039 3.63699 -6.93043 3.78237 7.74134 0.01 
222 1 23 0.279816 0.0639103 0.0753855 0.25596 0.0685223 -0.132286 0 0 0 -6.93043 3.78237 7.74134 0.01 
223 1 23 0.273137 0.0671926 0.0804466 0.249694 0.0518926 -0.129771 0 0 0 -6.93043 3.78237 7.74134 0.01 
224 1 23 0.266457 0.0704749 0.0855078 0.243428 0.0352628 -0.127256 -0.135519 0.0111279 -0.0657385 -6.93043 3.78237 7.74134 0.01 
225 1 23 0.259778 0.0737572 0.0905689 0.237161 0.0186331 -0.124741 0.234196 0.409845 0.243536 -6.93043 3.78237 7.74134 0.01 
226 1 23 0.253099 0.0770395 0.0956301 0.230895 0.00200335 -0.122225 0 0 0 -6.93043 3.78237 7.74134 0.01 
227 1 23 0.24642 0.0803218 0.100691 0.224629 -0.0146264 -0.11971 0 0 0 -6.93043 3.78237 7.74134 0.01 
228 1 23 0.239741 0.0836041 0.105752 0.218362 -0.0312561 -0.117195 0 0 0 -6.93043 3.78237 7.74134 0.01 
229 1 23 0.233062 0.0868864 0.110814 0.212096 -0.0478859 -0.11468 0 0 0 -6.93043 3.78237 7.74134 0.01 
230 1 23 0.226382 0.0901687 0.115875 0.20583 -0.0645156 -0.112164 0 0 0 -6.93043 3.78237 7.74134 0.01 
231 1 24 0.182189 -0.0059885 0.0114946 0.243957 -0.396738 0.0244249 0 0 0 -4.41078 -0.758151 4.63714 0.01 
232 1 24 0.189745 -0.00396291 0.0159463 0.231189 -0.342068 0.0212184 0 0 0 -4.41078 -0.758151 4.63714 0.01 
233 1 24 0.1973 -0.00193731 0.0203979 0.218421 -0.287399 0.0180119 -0.0177059 -0.0549848 0.063897 -4.41078 -0.758151 4.63714 0.01 
234 1 24 0.204855 8.828e-05 0.0248496 0.205653 -0.23273 0.0148054 -0.057092 -0.163746 0.193548 -4.41078 -0.758151 4.63714 0.01 
235 1 24 0.21241 0.00211387 0.0293012 0.192885 -0.17806 0.0115988 -0.0972457 -0.268036 0.32664 -4.41078 -0.758151 4.63714 0.01 
236 1 24 0.219965 0.00413947 0.0337528 0.180117 -0.123391 0.00839234 -0.0474282 -0.363103 0.267593 -4.41078 -0.758151 4.63714 0.01 
237 1 24 0.22752 0.00616506 0.0382045 0.167349 -0.0687216 0.00518582 -0.119761 -0.402723 0.56068 -4.41078 -0.758151 4.63714 0.01 
238 1 24 0.235075 0.00819065 0.0426561 0.154581 -0.0140522 0.00197931 0.571322 2.69355 -0.871833 -4.41078 -0.758151 4.63714 0.01 
239 1 24 0.24263 0.0102162 0.0471078 0.141813 0.0406171 -0.0012272 -0.0805558 -0.489367 0.56179 -4.41078 -0.758151 4.63714 0.01 
240 1 24 0.250185 0.0122418 0.0515594 0.129045 0.0952864 -0.00443371 0.0843279 -0.628751 0.28716 -4.41078 -0.758151 4.63714 0.01 
241 1 25 0.14032 -0.22402 0.0502415 0.067929 -0.0203616 0.0711068 -0.00756738 0.23992 0.71176 3.37327 7.49913 -2.74506 0.01 
242 1 25 0.145539 -0.221933 0.0572705 0.126368 -0.0583995 0.0390051 0 0 0 3.37327 7.49913 -2.74506 0.01 
243 1 25 0.150758 -0.219847 0.0642995 0.184806 -0.0964373 0.00690338 0 0 0 3.37327 7.49913 -2.74506 0.01 
244 1 25 0.155977 -0.217761 0.0713286 0.243245 -0.134475 -0.0251983 0 0 0 3.37327 7.49913 -2.74506 0.01 
245 1 25 0.161197 -0.215674 0.0783576 0.301684 -0.172513 -0.0573 0 0 0 3.37327 7.49913 -2.74506 0.01 
246 1 25 0.166416 -0.213588 0.0853866 0.360122 -0.210551 -0.0894017 0 0 0 3.37327 7.49913 -2.74506 0.01 
247 1 25 0.171635 -0.211502 0.0924157 0.418561 -0.248589 -0.121503 0 0 0 3.37327 7.49913 -2.74506 0.01 
248 1 25 0.176854 -0.209415 0.0994447 0.477 -0.286626 -0.153605 0 0 0 3.37327 7.49913 -2.74506 0.01 
249 1 25 0.182073 -0.207329 0.106474 0.535438 -0.324664 -0.185707 0 0 0 3.37327 7.49913 -2.74506 0.01 
250 1 25 0.187293 -0.205243 0.113503 0.593877 -0.362702 -0.217809 0 0 0 3.37327 7.49913 -2.74506 0.01 
251 1 26 -0.00140389 -0.176548 0.00994488 0.0325503 -0.0321206 -0.0268356 -0.336061 0.207219 0.789624 0.277212 0.748294 -0.0499467 0.01 
252 1 26 4.53156e-05 -0.183518 0.0154515 0.0363227 -0.0337194 -0.0298521 0.0464248 0.175135 -0.303021 0.277212 0.748294 -0.0499467 0.01 