ITEM: TIMESTEP
30000
ITEM: NUMBER OF ATOMS
6300
ITEM: BOX BOUNDS mm mm mm
-0.362251 0.356689
-0.328206 0.374669
0 0.5
ITEM: ATOMS id type mol x y z vx vy vz fx fy fz omegax omegay omegaz radius 
1 1 1 -0.129825 -0.111857 0.0863819 -0.242058 0.115723 0.0404514 -0.0664852 -0.0725762 -0.0510538 7.59872 6.86699 -9.41954 0.01 
2 1 1 -0.129762 -0.11644 0.0941276 -0.232034 0.0562761 0.00520012 0 0 0 7.59872 6.86699 -9.41954 0.01 
3 1 1 -0.1297 -0.121023 0.101873 -0.22201 -0.00317078 -0.0300511 -0.057193 0.15477 0.384231 7.59872 6.86699 -9.41954 0.01 
4 1 1 -0.129637 -0.125605 0.109619 -0.211986 -0.0626176 -0.0653024 0 0 0 7.59872 6.86699 -9.41954 0.01 
5 1 1 -0.129575 -0.130188 0.117365 -0.201962 -0.122064 -0.100554 0 0 0 7.59872 6.86699 -9.41954 0.01 
6 1 1 -0.129512 -0.13477 0.12511 -0.191938 -0.181511 -0.135805 0 0 0 7.59872 6.86699 -9.41954 0.01 
7 1 1 -0.129449 -0.139353 0.132856 -0.181914 -0.240958 -0.171056 0 0 0 7.59872 6.86699 -9.41954 0.01 
8 1 1 -0.129387 -0.143935 0.140602 -0.17189 -0.300405 -0.206307 0 0 0 7.59872 6.86699 -9.41954 0.01 
9 1 1 -0.129324 -0.148518 0.148348 -0.161866 -0.359852 -0.241559 0 0 0 7.59872 6.86699 -9.41954 0.01 
10 1 1 -0.129262 -0.1531 0.156093 -0.151842 -0.419299 -0.27681 0 0 0 7.59872 6.86699 -9.41954 0.01 
11 1 2 -0.0209005 -0.123898 0.0328921 0.0215481 -0.129016 -0.219753 0.037835 0.117452 0.0677808 4.00189 -0.635445 -6.43046 0.01 
12 1 2 -0.0233066 -0.124727 0.0415247 0.0107315 -0.14809 -0.224599 0 0 0 4.00189 -0.635445 -6.43046 0.01 
13 1 2 -0.0257128 -0.125556 0.0501574 -8.51438e-05 -0.167164 -0.229446 0 0 0 4.00189 -0.635445 -6.43046 0.01 
14 1 2 -0.0281189 -0.126385 0.0587901 -0.0109018 -0.186239 -0.234293 0 0 0 4.00189 -0.635445 -6.43046 0.01 
15 1 2 -0.0305251 -0.127214 0.0674228 -0.0217184 -0.205313 -0.239139 0.101606 -0.440049 -0.291047 4.00189 -0.635445 -6.43046 0.01 
16 1 2 -0.0329312 -0.128043 0.0760555 -0.0325351 -0.224387 -0.243986 0.0144901 -0.0395229 0.013809 4.00189 -0.635445 -6.43046 0.01 
17 1 2 -0.0353374 -0.128872 0.0846881 -0.0433517 -0.243462 -0.248833 0 0 0 4.00189 -0.635445 -6.43046 0.01 
18 1 2 -0.0377435 -0.129701 0.0933208 -0.0541684 -0.262536 -0.253679 -0.459833 -0.458041 0.227549 4.00189 -0.635445 -6.43046 0.01 
19 1 2 -0.0401497 -0.13053 0.101953 -0.064985 -0.28161 -0.258526 0 0 0 4.00189 -0.635445 -6.43046 0.01 
20 1 2 -0.0425559 -0.131359 0.110586 -0.0758017 -0.300685 -0.263373 0.280125 0.432506 0.00842602 4.00189 -0.635445 -6.43046 0.01 
21 1 3 -0.0307517 -0.0373774 0.00994177 0.0576903 -0.0755092 0.00792943 -0.0830265 0.0851895 0.237913 2.40241 0.358816 -2.5516 0.01 
22 1 3 -0.0337042 -0.0427071 0.0165657 0.0464679 -0.083889 -0.00381522 0 0 0 2.40241 0.358816 -2.5516 0.01 
23 1 3 -0.0366568 -0.0480367 0.0231897 0.0352454 -0.0922688 -0.0155599 0 0 0 2.40241 0.358816 -2.5516 0.01 
24 1 3 -0.0396093 -0.0533664 0.0298137 0.024023 -0.100649 -0.0273045 0.760175 -0.540817 0.191473 2.40241 0.358816 -2.5516 0.01 
25 1 3 -0.0425618 -0.0586961 0.0364377 0.0128005 -0.109028 -0.0390492 0 0 0 2.40241 0.358816 -2.5516 0.01 
26 1 3 -0.0455144 -0.0640258 0.0430617 0.00157811 -0.117408 -0.0507938 0 0 0 2.40241 0.358816 -2.5516 0.01 
27 1 3 -0.0484669 -0.0693555 0.0496856 -0.00964433 -0.125788 -0.0625385 0 0 0 2.40241 0.358816 -2.5516 0.01 
28 1 3 -0.0514194 -0.0746851 0.0563096 -0.0208668 -0.134168 -0.0742831 0.124014 0.427344 0.408436 2.40241 0.358816 -2.5516 0.01 
29 1 3 -0.054372 -0.0800148 0.0629336 -0.0320892 -0.142548 -0.0860278 -1.40734 -1.1292 -0.863713 2.40241 0.358816 -2.5516 0.01 
30 1 3 -0.0573245 -0.0853445 0.0695576 -0.0433116 -0.150928 -0.0977724 0.569235 0.56237 0.663653 2.40241 0.358816 -2.5516 0.01 
31 1 4 -0.0898104 0.115915 0.0107894 0.0302463 0.0481964 0.0550261 0 0 0 -6.76209 7.22044 10.34 0.01 
32 1 4 -0.0917002 0.121259 0.0177799 0.0254611 0.0759269 0.0325324 0 0 0 -6.76209 7.22044 10.34 0.01 
33 1 4 -0.0935899 0.126603 0.0247705 0.0206759 0.103657 0.0100387 0 0 0 -6.76209 7.22044 10.34 0.01 
34 1 4 -0.0954797 0.131947 0.031761 0.0158907 0.131388 -0.012455 0 0 0 -6.76209 7.22044 10.34 0.01 
35 1 4 -0.0973695 0.137292 0.0387515 0.0111054 0.159118 -0.0349487 0 0 0 -6.76209 7.22044 10.34 0.01 
36 1 4 -0.0992592 0.142636 0.045742 0.00632022 0.186849 -0.0574424 -0.0641348 0.0117786 0.109876 -6.76209 7.22044 10.34 0.01 
37 1 4 -0.101149 0.14798 0.0527325 0.001535 0.214579 -0.0799361 0.139578 -0.0286237 0.110335 -6.76209 7.22044 10.34 0.01 
38 1 4 -0.103039 0.153325 0.0597231 -0.00325022 0.24231 -0.10243 0.343034 -0.0905435 0.251484 -6.76209 7.22044 10.34 0.01 
39 1 4 -0.104928 0.158669 0.0667136 -0.00803544 0.270041 -0.124924 0.534965 -0.171184 0.381545 -6.76209 7.22044 10.34 0.01 
40 1 4 -0.106818 0.164013 0.0737041 -0.0128207 0.297771 -0.147417 -0.548372 -0.52076 -0.463769 -6.76209 7.22044 10.34 0.01 
41 1 5 0.0792924 -0.135389 0.00983163 0.0156813 -0.00319939 0.000297732 -0.678063 0.190857 1.64321 0.195501 1.56924 -0.254546 0.01 
42 1 5 0.0801132 -0.134445 0.0187443 0.0299076 -0.00515076 -0.000805777 0.710496 -0.143559 -0.609896 0.195501 1.56924 -0.254546 0.01 
43 1 5 0.080934 -0.133501 0.0276569 0.044134 -0.00710212 -0.00190929 0.106487 0.00477289 -0.0673808 0.195501 1.56924 -0.254546 0.01 
44 1 5 0.0817549 -0.132557 0.0365695 0.0583603 -0.00905349 -0.0030128 0 0 0 0.195501 1.56924 -0.254546 0.01 
45 1 5 0.0825757 -0.131612 0.0454821 0.0725866 -0.0110049 -0.0041163 0 0 0 0.195501 1.56924 -0.254546 0.01 
46 1 5 0.0833965 -0.130668 0.0543948 0.086813 -0.0129562 -0.00521981 0 0 0 0.195501 1.56924 -0.254546 0.01 
47 1 5 0.0842174 -0.129724 0.0633074 0.101039 -0.0149076 -0.00632332 0 0 0 0.195501 1.56924 -0.254546 0.01 
48 1 5 0.0850382 -0.12878 0.07222 0.115266 -0.016859 -0.00742683 -1.34437 -0.300625 0.284027 0.195501 1.56924 -0.254546 0.01 
49 1 5 0.0858591 -0.127836 0.0811326 0.129492 -0.0188103 -0.00853034 0 0 0 0.195501 1.56924 -0.254546 0.01 
50 1 5 0.0866799 -0.126892 0.0900452 0.143718 -0.0207617 -0.00963385 -0.0733033 -0.0197766 -0.204873 0.195501 1.56924 -0.254546 0.01 
51 1 6 0.186805 -0.0309325 0.0140533 0.129439 -0.00191372 0.145231 0 0 0 18.5863 6.73029 -8.60405 0.01 
52 1 6 0.18081 -0.0360844 0.0183558 0.114068 -0.0302943 0.0898281 0 0 0 18.5863 6.73029 -8.60405 0.01 
53 1 6 0.174814 -0.0412363 0.0226582 0.0986979 -0.0586749 0.0344254 0 0 0 18.5863 6.73029 -8.60405 0.01 
54 1 6 0.168818 -0.0463882 0.0269607 0.0833275 -0.0870555 -0.0209773 0 0 0 18.5863 6.73029 -8.60405 0.01 
55 1 6 0.162823 -0.0515401 0.0312632 0.0679571 -0.115436 -0.0763799 0 0 0 18.5863 6.73029 -8.60405 0.01 
56 1 6 0.156827 -0.056692 0.0355656 0.0525868 -0.143817 -0.131783 0 0 0 18.5863 6.73029 -8.60405 0.01 
57 1 6 0.150832 -0.0618439 0.0398681 0.0372164 -0.172197 -0.187185 0 0 0 18.5863 6.73029 -8.60405 0.01 
58 1 6 0.144836 -0.0669958 0.0441705 0.0218461 -0.200578 -0.242588 0 0 0 18.5863 6.73029 -8.60405 0.01 
59 1 6 0.138841 -0.0721477 0.048473 0.00647572 -0.228958 -0.297991 0.0778341 0.0903122 0.0967347 18.5863 6.73029 -8.60405 0.01 
60 1 6 0.132845 -0.0772996 0.0527755 -0.00889463 -0.257339 -0.353393 0 0 0 18.5863 6.73029 -8.60405 0.01 
61 1 7 -0.0381055 0.221347 0.00993922 -0.0230236 0.00655159 0.0111876 0.0342229 0.0963382 0.204473 -7.56007 0.0543146 -3.41589 0.01 
62 1 7 -0.0367273 0.224736 0.0181621 -0.011001 0.0640094 -0.0145075 -0.14752 -0.128751 0.241994 -7.56007 0.0543146 -3.41589 0.01 
63 1 7 -0.0353491 0.228125 0.026385 0.00102171 0.121467 -0.0402026 0 0 0 -7.56007 0.0543146 -3.41589 0.01 
64 1 7 -0.0339708 0.231514 0.0346079 0.0130444 0.178925 -0.0658977 0 0 0 -7.56007 0.0543146 -3.41589 0.01 
65 1 7 -0.0325926 0.234902 0.0428308 0.0250671 0.236383 -0.0915928 0 0 0 -7.56007 0.0543146 -3.41589 0.01 
66 1 7 -0.0312144 0.238291 0.0510537 0.0370897 0.293841 -0.117288 0 0 0 -7.56007 0.0543146 -3.41589 0.01 
67 1 7 -0.0298362 0.24168 0.0592766 0.0491124 0.351298 -0.142983 0 0 0 -7.56007 0.0543146 -3.41589 0.01 
68 1 7 -0.0284579 0.245069 0.0674994 0.0611351 0.408756 -0.168678 0.31113 0.248235 -0.623279 -7.56007 0.0543146 -3.41589 0.01 
69 1 7 -0.0270797 0.248458 0.0757223 0.0731578 0.466214 -0.194373 -0.0704735 -0.0397744 -0.0284456 -7.56007 0.0543146 -3.41589 0.01 
70 1 7 -0.0257015 0.251847 0.0839452 0.0851804 0.523672 -0.220068 -0.0385192 -0.0197863 0.0348983 -7.56007 0.0543146 -3.41589 0.01 
71 1 8 0.135704 -0.158191 0.10113 0.0462061 -0.34462 -0.179074 -0.00717895 -0.0336239 0.0595211 -2.90126 8.87435 2.18051 0.01 
72 1 8 0.141852 -0.156737 0.107541 0.099923 -0.312617 -0.237849 0 0 0 -2.90126 8.87435 2.18051 0.01 
73 1 8 0.148 -0.155283 0.113951 0.15364 -0.280614 -0.296624 0 0 0 -2.90126 8.87435 2.18051 0.01 
74 1 8 0.154147 -0.15383 0.120361 0.207357 -0.248611 -0.355399 0 0 0 -2.90126 8.87435 2.18051 0.01 
75 1 8 0.160295 -0.152376 0.126772 0.261074 -0.216608 -0.414174 0 0 0 -2.90126 8.87435 2.18051 0.01 
76 1 8 0.166443 -0.150922 0.133182 0.314791 -0.184605 -0.472949 0 0 0 -2.90126 8.87435 2.18051 0.01 
77 1 8 0.172591 -0.149468 0.139592 0.368508 -0.152602 -0.531724 0 0 0 -2.90126 8.87435 2.18051 0.01 
78 1 8 0.178738 -0.148014 0.146003 0.422225 -0.120599 -0.590499 0 0 0 -2.90126 8.87435 2.18051 0.01 
79 1 8 0.184886 -0.14656 0.152413 0.475942 -0.0885958 -0.649274 0 0 0 -2.90126 8.87435 2.18051 0.01 
80 1 8 0.191034 -0.145106 0.158823 0.529659 -0.0565927 -0.708049 0 0 0 -2.90126 8.87435 2.18051 0.01 
81 1 9 -0.128372 0.0423447 0.0664421 -0.0884626 -0.0190803 -0.145204 0.196294 -0.0921277 0.210038 9.10553 -3.96159 11.4848 0.01 
82 1 9 -0.122003 0.0417168 0.0727704 -0.106321 -0.00356108 -0.125692 0 0 0 9.10553 -3.96159 11.4848 0.01 
83 1 9 -0.115635 0.0410888 0.0790987 -0.124179 0.0119582 -0.10618 0 0 0 9.10553 -3.96159 11.4848 0.01 
84 1 9 -0.109266 0.0404609 0.085427 -0.142038 0.0274774 -0.0866686 0 0 0 9.10553 -3.96159 11.4848 0.01 
85 1 9 -0.102898 0.039833 0.0917553 -0.159896 0.0429967 -0.0671567 0 0 0 9.10553 -3.96159 11.4848 0.01 
86 1 9 -0.0965293 0.039205 0.0980836 -0.177754 0.0585159 -0.0476449 0 0 0 9.10553 -3.96159 11.4848 0.01 
87 1 9 -0.0901607 0.0385771 0.104412 -0.195613 0.0740352 -0.028133 -0.0504428 -0.0712891 0.224685 9.10553 -3.96159 11.4848 0.01 
88 1 9 -0.0837922 0.0379492 0.11074 -0.213471 0.0895544 -0.00862112 0 0 0 9.10553 -3.96159 11.4848 0.01 
89 1 9 -0.0774236 0.0373212 0.117068 -0.231329 0.105074 0.0108907 0 0 0 9.10553 -3.96159 11.4848 0.01 
90 1 9 -0.0710551 0.0366933 0.123397 -0.249188 0.120593 0.0304026 0 0 0 9.10553 -3.96159 11.4848 0.01 
91 1 10 0.0616995 0.221319 0.10562 0.114642 0.401004 -0.0828923 0 0 0 -0.115779 -5.86114 -3.31722 0.01 
92 1 10 0.0570123 0.224463 0.112631 0.0839821 0.417364 -0.110729 0 0 0 -0.115779 -5.86114 -3.31722 0.01 
93 1 10 0.0523251 0.227607 0.119641 0.0533221 0.433724 -0.138565 0 0 0 -0.115779 -5.86114 -3.31722 0.01 
94 1 10 0.0476379 0.230751 0.126652 0.0226622 0.450084 -0.166401 0 0 0 -0.115779 -5.86114 -3.31722 0.01 
95 1 10 0.0429507 0.233895 0.133662 -0.00799775 0.466444 -0.194238 0 0 0 -0.115779 -5.86114 -3.31722 0.01 
96 1 10 0.0382635 0.237039 0.140672 -0.0386577 0.482804 -0.222074 0 0 0 -0.115779 -5.86114 -3.31722 0.01 
97 1 10 0.0335763 0.240183 0.147683 -0.0693176 0.499164 -0.24991 0 0 0 -0.115779 -5.86114 -3.31722 0.01 
98 1 10 0.0288891 0.243327 0.154693 -0.0999776 0.515525 -0.277747 0 0 0 -0.115779 -5.86114 -3.31722 0.01 
99 1 10 0.0242019 0.246471 0.161704 -0.130637 0.531885 -0.305583 0.190258 -0.00439234 0.0996579 -0.115779 -5.86114 -3.31722 0.01 
100 1 10 0.0195147 0.249615 0.168714 -0.161297 0.548245 -0.333419 0 0 0 -0.115779 -5.86114 -3.31722 0.01 
101 1 11 -0.241996 -0.0818285 0.00988926 -0.0523735 0.0476171 0.026145 0.197817 -0.700887 0.2316 8.98538 -4.3052 -0.263335 0.01 
102 1 11 -0.240835 -0.0869706 0.0171838 -0.0851322 -0.0182333 -0.0150578 0 0 0 8.98538 -4.3052 -0.263335 0.01 
103 1 11 -0.239673 -0.0921126 0.0244784 -0.117891 -0.0840836 -0.0562606 0.609071 1.01189 1.29823 8.98538 -4.3052 -0.263335 0.01 
104 1 11 -0.238512 -0.0972546 0.031773 -0.150649 -0.149934 -0.0974633 0 0 0 8.98538 -4.3052 -0.263335 0.01 
105 1 11 -0.23735 -0.102397 0.0390676 -0.183408 -0.215784 -0.138666 0 0 0 8.98538 -4.3052 -0.263335 0.01 
106 1 11 -0.236189 -0.107539 0.0463621 -0.216167 -0.281635 -0.179869 -1.11564 0.408357 -0.123372 8.98538 -4.3052 -0.263335 0.01 
107 1 11 -0.235027 -0.112681 0.0536567 -0.248925 -0.347485 -0.221072 0 0 0 8.98538 -4.3052 -0.263335 0.01 
108 1 11 -0.233866 -0.117823 0.0609513 -0.281684 -0.413335 -0.262274 0.120173 0.944619 -1.76138 8.98538 -4.3052 -0.263335 0.01 
109 1 11 -0.232705 -0.122965 0.0682459 -0.314443 -0.479186 -0.303477 0.113793 -0.186247 -0.444532 8.98538 -4.3052 -0.263335 0.01 
110 1 11 -0.231543 -0.128107 0.0755404 -0.347201 -0.545036 -0.34468 0 0 0 8.98538 -4.3052 -0.263335 0.01 
111 1 12 0.116744 0.0475923 0.0528077 0.15907 -0.0386687 -0.00780616 -1.66361 3.71208 4.37037 -1.50006 -2.49331 -4.27369 0.01 
112 1 12 0.116942 0.0508307 0.0612025 0.151979 -0.0269214 -0.0121706 0 0 0 -1.50006 -2.49331 -4.27369 0.01 
113 1 12 0.11714 0.0540691 0.0695974 0.144888 -0.0151742 -0.0165351 0.519698 0.179102 -0.00321742 -1.50006 -2.49331 -4.27369 0.01 
114 1 12 0.117337 0.0573075 0.0779923 0.137797 -0.0034269 -0.0208995 0 0 0 -1.50006 -2.49331 -4.27369 0.01 
115 1 12 0.117535 0.0605458 0.0863871 0.130706 0.00832036 -0.025264 2.70764 -4.40331 1.78694 -1.50006 -2.49331 -4.27369 0.01 
116 1 12 0.117733 0.0637842 0.094782 0.123615 0.0200676 -0.0296285 0 0 0 -1.50006 -2.49331 -4.27369 0.01 
117 1 12 0.117931 0.0670226 0.103177 0.116523 0.0318149 -0.0339929 0 0 0 -1.50006 -2.49331 -4.27369 0.01 
118 1 12 0.118129 0.070261 0.111572 0.109432 0.0435621 -0.0383574 0 0 0 -1.50006 -2.49331 -4.27369 0.01 
119 1 12 0.118327 0.0734994 0.119967 0.102341 0.0553094 -0.0427218 0 0 0 -1.50006 -2.49331 -4.27369 0.01 
120 1 12 0.118525 0.0767377 0.128361 0.09525 0.0670567 -0.0470863 -0.801958 0.184215 -2.63699 -1.50006 -2.49331 -4.27369 0.01 
121 1 13 -0.000174663 0.269043 0.0808219 0.080235 0.547184 -0.266889 0 0 0 2.15041 5.33674 -2.06827 0.01 
122 1 13 -0.00455355 0.264171 0.0869939 0.103097 0.542969 -0.253996 0 0 0 2.15041 5.33674 -2.06827 0.01 
123 1 13 -0.00893243 0.259299 0.0931658 0.125959 0.538753 -0.241103 -0.188632 -0.000500723 -0.24183 2.15041 5.33674 -2.06827 0.01 
124 1 13 -0.0133113 0.254428 0.0993377 0.148822 0.534538 -0.22821 0.0566175 0.0106293 -0.05163 2.15041 5.33674 -2.06827 0.01 
125 1 13 -0.0176902 0.249556 0.10551 0.171684 0.530322 -0.215317 0 0 0 2.15041 5.33674 -2.06827 0.01 
126 1 13 -0.0220691 0.244685 0.111682 0.194546 0.526107 -0.202424 0 0 0 2.15041 5.33674 -2.06827 0.01 
127 1 13 -0.026448 0.239813 0.117854 0.217408 0.521892 -0.189531 0 0 0 2.15041 5.33674 -2.06827 0.01 
128 1 13 -0.0308268 0.234941 0.124025 0.240271 0.517676 -0.176638 0 0 0 2.15041 5.33674 -2.06827 0.01 
129 1 13 -0.0352057 0.23007 0.130197 0.263133 0.513461 -0.163745 0 0 0 2.15041 5.33674 -2.06827 0.01 
130 1 13 -0.0395846 0.225198 0.136369 0.285995 0.509245 -0.150852 0 0 0 2.15041 5.33674 -2.06827 0.01 
131 1 14 -0.0480775 0.126087 0.00970037 -0.00780249 0.0331584 0.0107223 1.71442 -0.624865 0.629172 -1.97567 0.961252 7.19554 0.01 
132 1 14 -0.0456526 0.130774 0.0169913 -0.0345149 0.0650115 -0.000867401 -0.156053 -0.154944 0.192501 -1.97567 0.961252 7.19554 0.01 
133 1 14 -0.0432277 0.13546 0.0242822 -0.0612274 0.0968647 -0.0124571 -1.95161 -0.43828 2.99538 -1.97567 0.961252 7.19554 0.01 
134 1 14 -0.0408027 0.140146 0.0315732 -0.0879398 0.128718 -0.0240467 -0.66362 1.47504 -2.87114 -1.97567 0.961252 7.19554 0.01 
135 1 14 -0.0383778 0.144833 0.0388641 -0.114652 0.160571 -0.0356364 0 0 0 -1.97567 0.961252 7.19554 0.01 
136 1 14 -0.0359529 0.149519 0.046155 -0.141365 0.192424 -0.0472261 0 0 0 -1.97567 0.961252 7.19554 0.01 
137 1 14 -0.0335279 0.154206 0.053446 -0.168077 0.224277 -0.0588157 0 0 0 -1.97567 0.961252 7.19554 0.01 
138 1 14 -0.031103 0.158892 0.0607369 -0.19479 0.25613 -0.0704054 0 0 0 -1.97567 0.961252 7.19554 0.01 
139 1 14 -0.0286781 0.163578 0.0680279 -0.221502 0.287984 -0.081995 0 0 0 -1.97567 0.961252 7.19554 0.01 
140 1 14 -0.0262532 0.168265 0.0753188 -0.248215 0.319837 -0.0935847 0 0 0 -1.97567 0.961252 7.19554 0.01 
141 1 15 -0.00758295 -0.0594787 0.00991142 -0.0529818 0.0233406 -0.0124834 0.0783749 -0.0948806 0.930524 -2.51432 -4.23771 9.95972 0.01 
142 1 15 -0.0112424 -0.0620724 0.0177141 -0.060214 0.00651234 -0.0214693 0 0 0 -2.51432 -4.23771 9.95972 0.01 
143 1 15 -0.0149018 -0.0646662 0.0255167 -0.0674462 -0.010316 -0.0304553 0 0 0 -2.51432 -4.23771 9.95972 0.01 
144 1 15 -0.0185612 -0.06726 0.0333193 -0.0746783 -0.0271442 -0.0394412 0 0 0 -2.51432 -4.23771 9.95972 0.01 
145 1 15 -0.0222206 -0.0698537 0.041122 -0.0819105 -0.0439725 -0.0484272 0 0 0 -2.51432 -4.23771 9.95972 0.01 
146 1 15 -0.02588 -0.0724475 0.0489246 -0.0891427 -0.0608008 -0.0574131 0 0 0 -2.51432 -4.23771 9.95972 0.01 
147 1 15 -0.0295394 -0.0750413 0.0567272 -0.0963749 -0.0776291 -0.0663991 0 0 0 -2.51432 -4.23771 9.95972 0.01 
148 1 15 -0.0331988 -0.077635 0.0645299 -0.103607 -0.0944574 -0.075385 -0.0953452 -0.140365 -0.350356 -2.51432 -4.23771 9.95972 0.01 
149 1 15 -0.0368582 -0.0802288 0.0723325 -0.110839 -0.111286 -0.0843709 1.06746 1.04587 0.341249 -2.51432 -4.23771 9.95972 0.01 
150 1 15 -0.0405176 -0.0828226 0.0801352 -0.118071 -0.128114 -0.0933569 0 0 0 -2.51432 -4.23771 9.95972 0.01 
151 1 16 -0.040249 0.179424 0.0103116 -0.110345 -0.0366253 0.0258203 0 0 0 -5.42037 4.88749 3.47051 0.01 
152 1 16 -0.0385794 0.184653 0.0174437 -0.0936352 0.00782767 -0.0106846 0 0 0 -5.42037 4.88749 3.47051 0.01 
153 1 16 -0.0369098 0.189883 0.0245758 -0.0769256 0.0522806 -0.0471896 -0.0167583 -0.0102836 0.0487238 -5.42037 4.88749 3.47051 0.01 
154 1 16 -0.0352402 0.195112 0.0317079 -0.0602159 0.0967336 -0.0836945 -0.050551 -0.0303753 0.146208 -5.42037 4.88749 3.47051 0.01 
155 1 16 -0.0335706 0.200341 0.03884 -0.0435063 0.141187 -0.120199 0 0 0 -5.42037 4.88749 3.47051 0.01 
156 1 16 -0.031901 0.205571 0.0459721 -0.0267966 0.185639 -0.156704 0 0 0 -5.42037 4.88749 3.47051 0.01 
157 1 16 -0.0302314 0.2108 0.0531042 -0.010087 0.230092 -0.193209 0 0 0 -5.42037 4.88749 3.47051 0.01 
158 1 16 -0.0285618 0.216029 0.0602363 0.00662269 0.274545 -0.229714 0.0202028 0.00449453 0.00468268 -5.42037 4.88749 3.47051 0.01 
159 1 16 -0.0268922 0.221258 0.0673684 0.0233323 0.318998 -0.266219 -0.0708532 0.0386137 0.0633727 -5.42037 4.88749 3.47051 0.01 
160 1 16 -0.0252226 0.226488 0.0745005 0.040042 0.363451 -0.302724 -0.000270865 0.0325918 0.0320954 -5.42037 4.88749 3.47051 0.01 
161 1 17 0.0740386 0.0894776 0.00942985 0.0249007 -0.00223925 -0.00777626 4.07308 -1.72644 11.617 0.451146 1.62448 1.76452 0.01 
162 1 17 0.0773013 0.0877251 0.0176325 0.041318 -0.000182768 -0.0138671 0 0 0 0.451146 1.62448 1.76452 0.01 
163 1 17 0.080564 0.0859727 0.0258352 0.0577352 0.00187371 -0.0199579 0 0 0 0.451146 1.62448 1.76452 0.01 
164 1 17 0.0838267 0.0842203 0.0340379 0.0741525 0.00393019 -0.0260486 0 0 0 0.451146 1.62448 1.76452 0.01 
165 1 17 0.0870894 0.0824679 0.0422405 0.0905698 0.00598667 -0.0321394 0 0 0 0.451146 1.62448 1.76452 0.01 
166 1 17 0.0903521 0.0807155 0.0504432 0.106987 0.00804315 -0.0382302 0 0 0 0.451146 1.62448 1.76452 0.01 
167 1 17 0.0936148 0.0789631 0.0586459 0.123404 0.0100996 -0.044321 0 0 0 0.451146 1.62448 1.76452 0.01 
168 1 17 0.0968775 0.0772106 0.0668486 0.139822 0.0121561 -0.0504118 0 0 0 0.451146 1.62448 1.76452 0.01 
169 1 17 0.10014 0.0754582 0.0750512 0.156239 0.0142126 -0.0565026 0 0 0 0.451146 1.62448 1.76452 0.01 
170 1 17 0.103403 0.0737058 0.0832539 0.172656 0.0162691 -0.0625934 -3.68584 1.3193 -9.07896 0.451146 1.62448 1.76452 0.01 
171 1 18 -0.317728 -0.0445576 0.0263869 -0.496491 0.00139389 -0.876463 0 0 0 -4.61227 -3.5619 -8.56115 0.01 
172 1 18 -0.313923 -0.042542 0.0342899 -0.507385 0.00526733 -0.872206 0 0 0 -4.61227 -3.5619 -8.56115 0.01 
173 1 18 -0.310118 -0.0405264 0.0421929 -0.518278 0.00914078 -0.867949 0 0 0 -4.61227 -3.5619 -8.56115 0.01 
174 1 18 -0.306313 -0.0385108 0.0500959 -0.529172 0.0130142 -0.863691 0 0 0 -4.61227 -3.5619 -8.56115 0.01 
175 1 18 -0.302507 -0.0364952 0.0579989 -0.540066 0.0168877 -0.859434 0 0 0 -4.61227 -3.5619 -8.56115 0.01 
176 1 18 -0.298702 -0.0344796 0.0659019 -0.55096 0.0207611 -0.855176 0 0 0 -4.61227 -3.5619 -8.56115 0.01 
177 1 18 -0.294897 -0.032464 0.0738049 -0.561854 0.0246346 -0.850919 0 0 0 -4.61227 -3.5619 -8.56115 0.01 
178 1 18 -0.291092 -0.0304483 0.0817079 -0.572747 0.028508 -0.846662 0 0 0 -4.61227 -3.5619 -8.56115 0.01 
179 1 18 -0.287286 -0.0284327 0.0896109 -0.583641 0.0323814 -0.842404 0 0 0 -4.61227 -3.5619 -8.56115 0.01 
180 1 18 -0.283481 -0.0264171 0.0975139 -0.594535 0.0362549 -0.838147 0 0 0 -4.61227 -3.5619 -8.56115 0.01 
181 1 19 0.0177559 0.202912 0.0959436 -0.041965 0.273442 -0.174363 -0.00181458 0.000745373 0.00195249 0.458387 -8.921 10.2407 0.01 
182 1 19 0.0173846 0.195933 0.101615 -0.0210923 0.26704 -0.180874 0 0 0 0.458387 -8.921 10.2407 0.01 
183 1 19 0.0170134 0.188955 0.107286 -0.000219545 0.260638 -0.187385 0 0 0 0.458387 -8.921 10.2407 0.01 
184 1 19 0.0166421 0.181976 0.112957 0.0206532 0.254236 -0.193896 0 0 0 0.458387 -8.921 10.2407 0.01 
185 1 19 0.0162708 0.174998 0.118628 0.0415259 0.247835 -0.200407 0 0 0 0.458387 -8.921 10.2407 0.01 
186 1 19 0.0158995 0.168019 0.124299 0.0623987 0.241433 -0.206918 0 0 0 0.458387 -8.921 10.2407 0.01 
187 1 19 0.0155282 0.161041 0.129971 0.0832714 0.235031 -0.213429 0 0 0 0.458387 -8.921 10.2407 0.01 
188 1 19 0.015157 0.154062 0.135642 0.104144 0.228629 -0.21994 0 0 0 0.458387 -8.921 10.2407 0.01 
189 1 19 0.0147857 0.147084 0.141313 0.125017 0.222228 -0.226451 0 0 0 0.458387 -8.921 10.2407 0.01 
190 1 19 0.0144144 0.140105 0.146984 0.14589 0.215826 -0.232962 0 0 0 0.458387 -8.921 10.2407 0.01 
191 1 20 -0.00930575 0.191287 0.00995068 -0.0256344 0.0438195 0.0176632 0.00170095 0.000608999 0.00361337 -6.6572 3.79604 2.49913 0.01 
192 1 20 -0.00672196 0.197347 0.0160823 -0.0175038 0.0910964 -0.0324895 0 0 0 -6.6572 3.79604 2.49913 0.01 
193 1 20 -0.00413816 0.203408 0.022214 -0.00937323 0.138373 -0.0826421 0 0 0 -6.6572 3.79604 2.49913 0.01 
194 1 20 -0.00155436 0.209468 0.0283456 -0.00124265 0.18565 -0.132795 -0.10081 0.0690588 0.160496 -6.6572 3.79604 2.49913 0.01 
195 1 20 0.00102943 0.215528 0.0344773 0.00688794 0.232927 -0.182947 -0.16732 0.111918 0.274788 -6.6572 3.79604 2.49913 0.01 
196 1 20 0.00361323 0.221588 0.0406089 0.0150185 0.280204 -0.2331 -0.18162 0.116876 0.314606 -6.6572 3.79604 2.49913 0.01 
197 1 20 0.00619703 0.227649 0.0467406 0.0231491 0.327481 -0.283253 -0.140168 0.0854908 0.260381 -6.6572 3.79604 2.49913 0.01 
198 1 20 0.00878083 0.233709 0.0528722 0.0312797 0.374758 -0.333405 -0.0620847 0.0346696 0.126929 -6.6572 3.79604 2.49913 0.01 
199 1 20 0.0113646 0.239769 0.0590039 0.0394103 0.422034 -0.383558 0 0 0 -6.6572 3.79604 2.49913 0.01 
200 1 20 0.0139484 0.245829 0.0651355 0.0475409 0.469311 -0.433711 0 0 0 -6.6572 3.79604 2.49913 0.01 
201 1 21 0.0147161 0.0063279 0.0107539 -0.166497 -0.0402888 0.0531236 0 0 0 -0.796008 -9.18865 -8.94898 0.01 
202 1 21 0.0125285 0.0120137 0.0173786 -0.176488 -0.0154394 0.0284974 0 0 0 -0.796008 -9.18865 -8.94898 0.01 
203 1 21 0.010341 0.0176994 0.0240033 -0.186478 0.00940989 0.00387116 -0.0515429 -0.129572 0.919815 -0.796008 -9.18865 -8.94898 0.01 
204 1 21 0.00815352 0.0233852 0.030628 -0.196468 0.0342592 -0.020755 -0.166322 -0.0883807 0.345053 -0.796008 -9.18865 -8.94898 0.01 
205 1 21 0.005966 0.029071 0.0372528 -0.206459 0.0591085 -0.0453812 -0.346805 0.205486 -0.705704 -0.796008 -9.18865 -8.94898 0.01 
206 1 21 0.00377849 0.0347568 0.0438775 -0.216449 0.0839579 -0.0700074 0 0 0 -0.796008 -9.18865 -8.94898 0.01 
207 1 21 0.00159098 0.0404425 0.0505022 -0.226439 0.108807 -0.0946336 0.580077 -0.360745 0.11005 -0.796008 -9.18865 -8.94898 0.01 
208 1 21 -0.000596535 0.0461283 0.0571269 -0.23643 0.133656 -0.11926 0.256106 0.0615734 0.0352284 -0.796008 -9.18865 -8.94898 0.01 
209 1 21 -0.00278405 0.0518141 0.0637516 -0.24642 0.158506 -0.143886 0 0 0 -0.796008 -9.18865 -8.94898 0.01 
210 1 21 -0.00497156 0.0574998 0.0703763 -0.25641 0.183355 -0.168512 -0.0192231 -0.0597919 -0.136518 -0.796008 -9.18865 -8.94898 0.01 
211 1 22 0.0165467 0.256069 0.0835899 0.0705247 0.307892 -0.349727 0 0 0 -6.21482 -9.23703 5.05447 0.01 
212 1 22 0.0135663 0.249947 0.0894748 0.0471122 0.329401 -0.339206 0 0 0 -6.21482 -9.23703 5.05447 0.01 
213 1 22 0.0105859 0.243824 0.0953596 0.0236998 0.35091 -0.328685 0 0 0 -6.21482 -9.23703 5.05447 0.01 
214 1 22 0.00760557 0.237701 0.101245 0.000287352 0.37242 -0.318164 0 0 0 -6.21482 -9.23703 5.05447 0.01 
215 1 22 0.0046252 0.231579 0.107129 -0.0231251 0.393929 -0.307644 0 0 0 -6.21482 -9.23703 5.05447 0.01 
216 1 22 0.00164483 0.225456 0.113014 -0.0465375 0.415438 -0.297123 0 0 0 -6.21482 -9.23703 5.05447 0.01 
217 1 22 -0.00133554 0.219334 0.118899 -0.06995 0.436947 -0.286602 -0.00442704 0.186846 0.326595 -6.21482 -9.23703 5.05447 0.01 
218 1 22 -0.00431591 0.213211 0.124784 -0.0933624 0.458456 -0.276081 0.000571485 0.00282318 0.00443409 -6.21482 -9.23703 5.05447 0.01 
219 1 22 -0.00729628 0.207089 0.130669 -0.116775 0.479966 -0.26556 0 0 0 -6.21482 -9.23703 5.05447 0.01 
220 1 22 -0.0102767 0.200966 0.136554 -0.140187 0.501475 -0.25504 0 0 0 -6.21482 -9.23703 5.05447 0.01 
221 1 23 0.245043 0.0502969 0.0991351 0.439984 0.0813495 -0.278598 0 0 0 -0.326425 0.0581721 4.74565 0.01 
222 1 23 0.240166 0.0556312 0.104498 0.414982 0.0599561 -0.280056 0 0 0 -0.326425 0.0581721 4.74565 0.01 
223 1 23 0.23529 0.0609655 0.109861 0.389979 0.0385628 -0.281513 0 0 0 -0.326425 0.0581721 4.74565 0.01 
224 1 23 0.230413 0.0662998 0.115224 0.364976 0.0171694 -0.282971 0 0 0 -0.326425 0.0581721 4.74565 0.01 
225 1 23 0.225536 0.0716341 0.120587 0.339973 -0.00422397 -0.284428 0 0 0 -0.326425 0.0581721 4.74565 0.01 
226 1 23 0.220659 0.0769684 0.12595 0.314971 -0.0256173 -0.285886 0 0 0 -0.326425 0.0581721 4.74565 0.01 
227 1 23 0.215782 0.0823027 0.131313 0.289968 -0.0470107 -0.287343 0 0 0 -0.326425 0.0581721 4.74565 0.01 
228 1 23 0.210905 0.087637 0.136676 0.264965 -0.0684041 -0.288801 0 0 0 -0.326425 0.0581721 4.74565 0.01 
229 1 23 0.206028 0.0929713 0.142039 0.239962 -0.0897975 -0.290258 0 0 0 -0.326425 0.0581721 4.74565 0.01 
230 1 23 0.201151 0.0983056 0.147402 0.21496 -0.111191 -0.291716 0 0 0 -0.326425 0.0581721 4.74565 0.01 
231 1 24 0.165365 0.0213513 0.010244 0.166021 -0.125634 -0.046192 0 0 0 3.1636 -2.06604 6.31953 0.01 
232 1 24 0.172138 0.0196354 0.0159168 0.165144 -0.100778 -0.0376271 0 0 0 3.1636 -2.06604 6.31953 0.01 
233 1 24 0.178911 0.0179195 0.0215897 0.164268 -0.0759226 -0.0290622 0 0 0 3.1636 -2.06604 6.31953 0.01 
234 1 24 0.185684 0.0162036 0.0272626 0.163391 -0.0510669 -0.0204973 0 0 0 3.1636 -2.06604 6.31953 0.01 
235 1 24 0.192457 0.0144876 0.0329355 0.162514 -0.0262112 -0.0119324 0 0 0 3.1636 -2.06604 6.31953 0.01 
236 1 24 0.19923 0.0127717 0.0386084 0.161638 -0.00135543 -0.00336748 0 0 0 3.1636 -2.06604 6.31953 0.01 
237 1 24 0.206003 0.0110558 0.0442812 0.160761 0.0235003 0.00519742 0 0 0 3.1636 -2.06604 6.31953 0.01 
238 1 24 0.212776 0.00933991 0.0499541 0.159884 0.048356 0.0137623 0 0 0 3.1636 -2.06604 6.31953 0.01 
239 1 24 0.219549 0.007624 0.055627 0.159008 0.0732118 0.0223272 0.0406625 0.368176 1.29405 3.1636 -2.06604 6.31953 0.01 
240 1 24 0.226322 0.00590809 0.0612999 0.158131 0.0980675 0.0308921 0 0 0 3.1636 -2.06604 6.31953 0.01 
241 1 25 0.139117 -0.198469 0.0822541 -0.0652309 -0.0707264 -0.856381 0 0 0 5.15865 12.7951 14.6926 0.01 
242 1 25 0.140158 -0.193809 0.0898825 -0.0361029 -0.0947815 -0.84566 0 0 0 5.15865 12.7951 14.6926 0.01 
243 1 25 0.141199 -0.189148 0.097511 -0.006975 -0.118837 -0.834938 0 0 0 5.15865 12.7951 14.6926 0.01 
244 1 25 0.142241 -0.184487 0.105139 0.0221529 -0.142892 -0.824217 0 0 0 5.15865 12.7951 14.6926 0.01 
245 1 25 0.143282 -0.179826 0.112768 0.0512809 -0.166947 -0.813495 0 0 0 5.15865 12.7951 14.6926 0.01 
246 1 25 0.144323 -0.175166 0.120396 0.0804088 -0.191002 -0.802774 0 0 0 5.15865 12.7951 14.6926 0.01 
247 1 25 0.145364 -0.170505 0.128025 0.109537 -0.215057 -0.792052 0 0 0 5.15865 12.7951 14.6926 0.01 
248 1 25 0.146405 -0.165844 0.135653 0.138665 -0.239112 -0.781331 0 0 0 5.15865 12.7951 14.6926 0.01 
249 1 25 0.147446 -0.161183 0.143282 0.167793 -0.263167 -0.770609 0 0 0 5.15865 12.7951 14.6926 0.01 
250 1 25 0.148488 -0.156522 0.15091 0.196921 -0.287222 -0.759888 0 0 0 5.15865 12.7951 14.6926 0.01 
251 1 26 -0.00455723 -0.175042 0.0103058 0.0724967 0.104999 0.0437682 -0.0723844 -0.0148755 0.0249697 7.05789 3.10126 -6.1265 0.01 
252 1 26 -0.00367161 -0.180765 0.0171957 0.058807 0.0509442 0.000634643 -0.0782484 -0.00850357 0.0341463 7.05789 3.10126 -6.1265 0.01 
253 1 26 -0.00278598 -0.186487 0.0240857 0.0451172 -0.0031102 -0.0424989 0.44412 0.356194 1.33643 7.05789 3.10126 -6.1265 0.01 
254 1 26 -0.00190036 -0.192209 0.0309756 0.0314274 -0.0571646 -0.0856325 0.210761 -0.40963 -0.347853 7.05789 3.10126 -6.1265 0.01 
255 1 26 -0.00101474 -0.197931 0.0378656 0.0177376 -0.111219 -0.128766 -0.0603993 0.0126227 0.0341432 7.05789 3.10126 -6.1265 0.01 
256 1 26 -0.000129112 -0.203654 0.0447556 0.00404786 -0.165273 -0.1719 -0.0450388 0.012964 0.0258187 7.05789 3.10126 -6.1265 0.01 
257 1 26 0.000756511 -0.209376 0.0516455 -0.00964191 -0.219328 -0.215033 -0.0273494 0.00961229 0.015741 7.05789 3.10126 -6.1265 0.01 
258 1 26 0.00164213 -0.215098 0.0585355 -0.0233317 -0.273382 -0.258167 -0.0100393 0.00404688 0.00578134 7.05789 3.10126 -6.1265 0.01 
259 1 26 0.00252776 -0.22082 0.0654255 -0.0370215 -0.327437 -0.3013 0.00159893 -1.95616e-05 0.000593123 7.05789 3.10126 -6.1265 0.01 
260 1 26 0.00341338 -0.226543 0.0723154 -0.0507112 -0.381491 -0.344434 0 0 0 7.05789 3.10126 -6.1265 0.01 
261 1 27 -0.135503 0.220181 0.0786774 -0.141099 0.532186 -0.3706 -0.131448 2.36912 1.61417 -5.43266 -16.3631 9.5207 0.01 