ITEM: TIMESTEP
9000
ITEM: NUMBER OF ATOMS
6300
ITEM: BOX BOUNDS mm mm mm
-0.3 0.3
-0.3 0.3
0 0.5
ITEM: ATOMS id type mol x y z vx vy vz fx fy fz omegax omegay omegaz radius 
1 1 1 -0.115317 -0.129414 0.114468 0 0 -1.88285 0 0 0 0 0 0 0.01 
2 1 1 -0.115317 -0.129414 0.123468 0 0 -1.88285 0 0 0 0 0 0 0.01 
3 1 1 -0.115317 -0.129414 0.132468 0 0 -1.88285 0 0 0 0 0 0 0.01 
4 1 1 -0.115317 -0.129414 0.141468 0 0 -1.88285 0 0 0 0 0 0 0.01 
5 1 1 -0.115317 -0.129414 0.150468 0 0 -1.88285 0 0 0 0 0 0 0.01 
6 1 1 -0.115317 -0.129414 0.159468 0 0 -1.88285 0 0 0 0 0 0 0.01 
7 1 1 -0.115317 -0.129414 0.168468 0 0 -1.88285 0 0 0 0 0 0 0.01 
8 1 1 -0.115317 -0.129414 0.177468 0 0 -1.88285 0 0 0 0 0 0 0.01 
9 1 1 -0.115317 -0.129414 0.186468 0 0 -1.88285 0 0 0 0 0 0 0.01 
10 1 1 -0.115317 -0.129414 0.195468 0 0 -1.88285 0 0 0 0 0 0 0.01 
11 1 2 -0.0459759 -0.101492 0.104292 0.199219 -0.211262 -1.38947 8.98015 -7.60569 24.8613 -2.82751 -2.3998 1.92282 0.01 
12 1 2 -0.0459832 -0.101481 0.113292 0.177599 -0.185829 -1.38952 0 0 0 -2.82751 -2.3998 1.92282 0.01 
13 1 2 -0.0459906 -0.101469 0.122292 0.155979 -0.160396 -1.38957 0 0 0 -2.82751 -2.3998 1.92282 0.01 
14 1 2 -0.045998 -0.101458 0.131292 0.134359 -0.134962 -1.38962 0 0 0 -2.82751 -2.3998 1.92282 0.01 
15 1 2 -0.0460053 -0.101447 0.140292 0.112738 -0.109529 -1.38967 0 0 0 -2.82751 -2.3998 1.92282 0.01 
16 1 2 -0.0460127 -0.101435 0.149292 0.0911184 -0.0840957 -1.38971 0 0 0 -2.82751 -2.3998 1.92282 0.01 
17 1 2 -0.0460201 -0.101424 0.158292 0.0694983 -0.0586623 -1.38976 0 0 0 -2.82751 -2.3998 1.92282 0.01 
18 1 2 -0.0460274 -0.101413 0.167292 0.0478782 -0.033229 -1.38981 0 0 0 -2.82751 -2.3998 1.92282 0.01 
19 1 2 -0.0460348 -0.101401 0.176292 0.0262581 -0.00779559 -1.38986 0 0 0 -2.82751 -2.3998 1.92282 0.01 
20 1 2 -0.0460422 -0.10139 0.185292 0.00463806 0.0176378 -1.38991 0 0 0 -2.82751 -2.3998 1.92282 0.01 
21 1 3 -0.040523 -0.0319853 0.099665 0.083086 0.0387003 -1.1406 0 0 0 0.205966 -1.82784 0.961788 0.01 
22 1 3 -0.0409082 -0.0318138 0.108655 0.0664885 0.0364781 -1.14126 0 0 0 0.205966 -1.82784 0.961788 0.01 
23 1 3 -0.0412934 -0.0316423 0.117645 0.0498911 0.034256 -1.14193 0 0 0 0.205966 -1.82784 0.961788 0.01 
24 1 3 -0.0416786 -0.0314708 0.126635 0.0332936 0.0320339 -1.1426 0 0 0 0.205966 -1.82784 0.961788 0.01 
25 1 3 -0.0420638 -0.0312993 0.135625 0.0166962 0.0298117 -1.14327 0 0 0 0.205966 -1.82784 0.961788 0.01 
26 1 3 -0.042449 -0.0311278 0.144616 9.87047e-05 0.0275896 -1.14394 0 0 0 0.205966 -1.82784 0.961788 0.01 
27 1 3 -0.0428342 -0.0309563 0.153606 -0.0164987 0.0253675 -1.14461 0 0 0 0.205966 -1.82784 0.961788 0.01 
28 1 3 -0.0432194 -0.0307848 0.162596 -0.0330962 0.0231453 -1.14528 0 0 0 0.205966 -1.82784 0.961788 0.01 
29 1 3 -0.0436046 -0.0306133 0.171586 -0.0496936 0.0209232 -1.14595 0 0 0 0.205966 -1.82784 0.961788 0.01 
30 1 3 -0.0439898 -0.0304418 0.180576 -0.0662911 0.0187011 -1.14661 -0.100586 -0.155357 -0.0778933 0.205966 -1.82784 0.961788 0.01 
31 1 4 -0.0929903 0.110329 0.0308284 0 0 -1.88285 0 0 0 0 0 0 0.01 
32 1 4 -0.0929903 0.110329 0.0398284 0 0 -1.88285 0 0 0 0 0 0 0.01 
33 1 4 -0.0929903 0.110329 0.0488284 0 0 -1.88285 0 0 0 0 0 0 0.01 
34 1 4 -0.0929903 0.110329 0.0578284 0 0 -1.88285 0 0 0 0 0 0 0.01 
35 1 4 -0.0929903 0.110329 0.0668284 0 0 -1.88285 0 0 0 0 0 0 0.01 
36 1 4 -0.0929903 0.110329 0.0758284 0 0 -1.88285 0 0 0 0 0 0 0.01 
37 1 4 -0.0929903 0.110329 0.0848284 0 0 -1.88285 0 0 0 0 0 0 0.01 
38 1 4 -0.0929903 0.110329 0.0938284 0 0 -1.88285 0 0 0 0 0 0 0.01 
39 1 4 -0.0929903 0.110329 0.102828 0 0 -1.88285 0 0 0 0 0 0 0.01 
40 1 4 -0.0929903 0.110329 0.111828 0 0 -1.88285 0 0 0 0 0 0 0.01 
41 1 5 0.0783294 -0.132335 0.0973946 0.0226665 0.103764 -1.17551 -0.0732235 -2.13768 1.26931 0.594434 1.25556 -4.96086 0.01 
42 1 5 0.0782164 -0.13189 0.106383 0.0361608 0.0989814 -1.17511 -0.0943956 -1.74366 1.03869 0.594434 1.25556 -4.96086 0.01 
43 1 5 0.0781034 -0.131444 0.115371 0.0496552 0.0941991 -1.1747 -0.102695 -1.3723 0.819057 0.594434 1.25556 -4.96086 0.01 
44 1 5 0.0779904 -0.130999 0.124359 0.0631495 0.0894169 -1.17429 -0.0988229 -1.02474 0.611913 0.594434 1.25556 -4.96086 0.01 
45 1 5 0.0778774 -0.130554 0.133348 0.0766439 0.0846346 -1.17389 -0.0841901 -0.700182 0.417573 0.594434 1.25556 -4.96086 0.01 
46 1 5 0.0777644 -0.130109 0.142336 0.0901383 0.0798523 -1.17348 -0.394119 -0.189741 2.46624 0.594434 1.25556 -4.96086 0.01 
47 1 5 0.0776513 -0.129663 0.151324 0.103633 0.0750701 -1.17307 0 0 0 0.594434 1.25556 -4.96086 0.01 
48 1 5 0.0775383 -0.129218 0.160312 0.117127 0.0702878 -1.17267 0 0 0 0.594434 1.25556 -4.96086 0.01 
49 1 5 0.0774253 -0.128773 0.169301 0.130621 0.0655055 -1.17226 0 0 0 0.594434 1.25556 -4.96086 0.01 
50 1 5 0.0773123 -0.128327 0.178289 0.144116 0.0607233 -1.17185 0 0 0 0.594434 1.25556 -4.96086 0.01 
51 1 6 0.172125 -0.0417155 0.0826277 0.092781 0.206311 -1.61324 0 0 0 2.78287 -0.986961 -2.21997 0.01 
52 1 6 0.171988 -0.0420529 0.0916203 0.0831566 0.181592 -1.61432 0 0 0 2.78287 -0.986961 -2.21997 0.01 
53 1 6 0.17185 -0.0423903 0.100613 0.0735322 0.156872 -1.61539 0 0 0 2.78287 -0.986961 -2.21997 0.01 
54 1 6 0.171712 -0.0427277 0.109606 0.0639079 0.132153 -1.61647 0 0 0 2.78287 -0.986961 -2.21997 0.01 
55 1 6 0.171574 -0.0430651 0.118598 0.0542835 0.107433 -1.61754 0 0 0 2.78287 -0.986961 -2.21997 0.01 
56 1 6 0.171437 -0.0434025 0.127591 0.0446591 0.0827137 -1.61862 0 0 0 2.78287 -0.986961 -2.21997 0.01 
57 1 6 0.171299 -0.0437399 0.136583 0.0350347 0.0579942 -1.61969 0 0 0 2.78287 -0.986961 -2.21997 0.01 
58 1 6 0.171161 -0.0440773 0.145576 0.0254104 0.0332747 -1.62077 0 0 0 2.78287 -0.986961 -2.21997 0.01 
59 1 6 0.171023 -0.0444147 0.154569 0.015786 0.00855521 -1.62184 0 0 0 2.78287 -0.986961 -2.21997 0.01 
60 1 6 0.170886 -0.044752 0.163561 0.00616164 -0.0161643 -1.62292 0 0 0 2.78287 -0.986961 -2.21997 0.01 
61 1 7 -0.0369025 0.216069 0.0821847 0.0159849 0.0570118 -1.73449 0 0 0 0.647164 -0.534114 1.32992 0.01 
62 1 7 -0.0369095 0.216046 0.0911847 0.0112077 0.0511779 -1.73451 0 0 0 0.647164 -0.534114 1.32992 0.01 
63 1 7 -0.0369166 0.216024 0.100185 0.00643044 0.0453441 -1.73453 0 0 0 0.647164 -0.534114 1.32992 0.01 
64 1 7 -0.0369236 0.216001 0.109185 0.00165321 0.0395102 -1.73454 0 0 0 0.647164 -0.534114 1.32992 0.01 
65 1 7 -0.0369307 0.215979 0.118185 -0.00312401 0.0336764 -1.73456 0 0 0 0.647164 -0.534114 1.32992 0.01 
66 1 7 -0.0369377 0.215957 0.127185 -0.00790124 0.0278426 -1.73458 0 0 0 0.647164 -0.534114 1.32992 0.01 
67 1 7 -0.0369448 0.215934 0.136185 -0.0126785 0.0220087 -1.7346 0 0 0 0.647164 -0.534114 1.32992 0.01 
68 1 7 -0.0369518 0.215912 0.145184 -0.0174557 0.0161749 -1.73462 0 0 0 0.647164 -0.534114 1.32992 0.01 
69 1 7 -0.0369589 0.215889 0.154184 -0.0222329 0.010341 -1.73463 0 0 0 0.647164 -0.534114 1.32992 0.01 
70 1 7 -0.036966 0.215867 0.163184 -0.0270101 0.0045072 -1.73465 0 0 0 0.647164 -0.534114 1.32992 0.01 
71 1 8 0.123021 -0.136718 0.108046 -0.00434835 0.00317345 -0.299301 -0.971381 0.735061 17.159 1.38726 1.85729 -0.00340429 0.01 
72 1 8 0.123094 -0.136772 0.117045 0.0123662 -0.00931151 -0.299512 0 0 0 1.38726 1.85729 -0.00340429 0.01 
73 1 8 0.123167 -0.136826 0.126045 0.0290808 -0.0217965 -0.299723 0 0 0 1.38726 1.85729 -0.00340429 0.01 
74 1 8 0.12324 -0.136881 0.135044 0.0457954 -0.0342814 -0.299935 0 0 0 1.38726 1.85729 -0.00340429 0.01 
75 1 8 0.123313 -0.136935 0.144044 0.0625099 -0.0467664 -0.300146 0 0 0 1.38726 1.85729 -0.00340429 0.01 
76 1 8 0.123387 -0.136989 0.153043 0.0792245 -0.0592513 -0.300357 0 0 0 1.38726 1.85729 -0.00340429 0.01 
77 1 8 0.12346 -0.137043 0.162043 0.0959391 -0.0717363 -0.300568 0 0 0 1.38726 1.85729 -0.00340429 0.01 
78 1 8 0.123533 -0.137098 0.171042 0.112654 -0.0842213 -0.30078 0 0 0 1.38726 1.85729 -0.00340429 0.01 
79 1 8 0.123606 -0.137152 0.180042 0.129368 -0.0967062 -0.300991 0 0 0 1.38726 1.85729 -0.00340429 0.01 
80 1 8 0.123679 -0.137206 0.189041 0.146083 -0.109191 -0.301202 0 0 0 1.38726 1.85729 -0.00340429 0.01 
81 1 9 -0.103348 0.0216352 0.228638 0 0 -1.88285 0 0 0 0 0 0 0.01 
82 1 9 -0.103348 0.0216352 0.237638 0 0 -1.88285 0 0 0 0 0 0 0.01 
83 1 9 -0.103348 0.0216352 0.246638 0 0 -1.88285 0 0 0 0 0 0 0.01 
84 1 9 -0.103348 0.0216352 0.255638 0 0 -1.88285 0 0 0 0 0 0 0.01 
85 1 9 -0.103348 0.0216352 0.264638 0 0 -1.88285 0 0 0 0 0 0 0.01 
86 1 9 -0.103348 0.0216352 0.273638 0 0 -1.88285 0 0 0 0 0 0 0.01 
87 1 9 -0.103348 0.0216352 0.282638 0 0 -1.88285 0 0 0 0 0 0 0.01 
88 1 9 -0.103348 0.0216352 0.291638 0 0 -1.88285 0 0 0 0 0 0 0.01 
89 1 9 -0.103348 0.0216352 0.300638 0 0 -1.88285 0 0 0 0 0 0 0.01 
90 1 9 -0.103348 0.0216352 0.309638 0 0 -1.88285 0 0 0 0 0 0 0.01 
91 1 10 0.0527905 0.204027 0.107715 0.0639162 -0.203943 0.00680414 -0.374449 0.776685 22.5695 -2.55419 -0.743576 -0.302353 0.01 
92 1 10 0.0525102 0.204623 0.116691 0.0574223 -0.180932 0.0050723 0 0 0 -2.55419 -0.743576 -0.302353 0.01 
93 1 10 0.0522299 0.20522 0.125667 0.0509284 -0.157921 0.00334047 0 0 0 -2.55419 -0.743576 -0.302353 0.01 
94 1 10 0.0519496 0.205816 0.134643 0.0444346 -0.13491 0.00160863 0 0 0 -2.55419 -0.743576 -0.302353 0.01 
95 1 10 0.0516693 0.206413 0.143619 0.0379407 -0.1119 -0.0001232 0 0 0 -2.55419 -0.743576 -0.302353 0.01 
96 1 10 0.051389 0.207009 0.152595 0.0314468 -0.0888889 -0.00185503 0 0 0 -2.55419 -0.743576 -0.302353 0.01 
97 1 10 0.0511087 0.207605 0.161571 0.0249529 -0.0658781 -0.00358687 0 0 0 -2.55419 -0.743576 -0.302353 0.01 
98 1 10 0.0508284 0.208202 0.170546 0.018459 -0.0428674 -0.0053187 0 0 0 -2.55419 -0.743576 -0.302353 0.01 
99 1 10 0.0505482 0.208798 0.179522 0.0119651 -0.0198566 -0.00705054 0 0 0 -2.55419 -0.743576 -0.302353 0.01 
100 1 10 0.0502679 0.209395 0.188498 0.00547126 0.00315416 -0.00878237 3.36842 -6.54289 -18.4666 -2.55419 -0.743576 -0.302353 0.01 
101 1 11 -0.191384 -0.0894902 0.117418 0 0 -1.88285 0 0 0 0 0 0 0.01 
102 1 11 -0.191384 -0.0894902 0.126418 0 0 -1.88285 0 0 0 0 0 0 0.01 
103 1 11 -0.191384 -0.0894902 0.135418 0 0 -1.88285 0 0 0 0 0 0 0.01 
104 1 11 -0.191384 -0.0894902 0.144418 0 0 -1.88285 0 0 0 0 0 0 0.01 
105 1 11 -0.191384 -0.0894902 0.153418 0 0 -1.88285 0 0 0 0 0 0 0.01 
106 1 11 -0.191384 -0.0894902 0.162418 0 0 -1.88285 0 0 0 0 0 0 0.01 
107 1 11 -0.191384 -0.0894902 0.171418 0 0 -1.88285 0 0 0 0 0 0 0.01 
108 1 11 -0.191384 -0.0894902 0.180418 0 0 -1.88285 0 0 0 0 0 0 0.01 
109 1 11 -0.191384 -0.0894902 0.189418 0 0 -1.88285 0 0 0 0 0 0 0.01 
110 1 11 -0.191384 -0.0894902 0.198418 0 0 -1.88285 0 0 0 0 0 0 0.01 
111 1 12 0.0982723 0.0546569 0.109657 0.0529849 -0.0717463 -0.100265 0.310026 0.0480134 4.57999 -1.2808 0.936922 2.85136 0.01 
112 1 12 0.0985118 0.0550357 0.118646 0.0603266 -0.0595505 -0.100974 0 0 0 -1.2808 0.936922 2.85136 0.01 
113 1 12 0.0987513 0.0554145 0.127634 0.0676683 -0.0473547 -0.101684 0 0 0 -1.2808 0.936922 2.85136 0.01 
114 1 12 0.0989908 0.0557933 0.136623 0.0750101 -0.0351588 -0.102394 0 0 0 -1.2808 0.936922 2.85136 0.01 
115 1 12 0.0992303 0.0561722 0.145612 0.0823518 -0.022963 -0.103103 0 0 0 -1.2808 0.936922 2.85136 0.01 
116 1 12 0.0994698 0.056551 0.154601 0.0896935 -0.0107672 -0.103813 0 0 0 -1.2808 0.936922 2.85136 0.01 
117 1 12 0.0997094 0.0569298 0.16359 0.0970352 0.0014286 -0.104522 0 0 0 -1.2808 0.936922 2.85136 0.01 
118 1 12 0.0999489 0.0573086 0.172579 0.104377 0.0136244 -0.105232 0 0 0 -1.2808 0.936922 2.85136 0.01 
119 1 12 0.100188 0.0576874 0.181567 0.111719 0.0258202 -0.105942 0 0 0 -1.2808 0.936922 2.85136 0.01 
120 1 12 0.100428 0.0580662 0.190556 0.11906 0.038016 -0.106651 0 0 0 -1.2808 0.936922 2.85136 0.01 
121 1 13 -0.0168848 0.215837 0.201788 0 0 -1.88285 0 0 0 0 0 0 0.01 
122 1 13 -0.0168848 0.215837 0.210788 0 0 -1.88285 0 0 0 0 0 0 0.01 
123 1 13 -0.0168848 0.215837 0.219788 0 0 -1.88285 0 0 0 0 0 0 0.01 
124 1 13 -0.0168848 0.215837 0.228788 0 0 -1.88285 0 0 0 0 0 0 0.01 
125 1 13 -0.0168848 0.215837 0.237788 0 0 -1.88285 0 0 0 0 0 0 0.01 
126 1 13 -0.0168848 0.215837 0.246788 0 0 -1.88285 0 0 0 0 0 0 0.01 
127 1 13 -0.0168848 0.215837 0.255788 0 0 -1.88285 0 0 0 0 0 0 0.01 
128 1 13 -0.0168848 0.215837 0.264788 0 0 -1.88285 0 0 0 0 0 0 0.01 
129 1 13 -0.0168848 0.215837 0.273788 0 0 -1.88285 0 0 0 0 0 0 0.01 
130 1 13 -0.0168848 0.215837 0.282788 0 0 -1.88285 0 0 0 0 0 0 0.01 
131 1 14 -0.0490577 0.121773 0.0107947 0.0920507 -0.163246 -1.03669 0 0 0 -2.03963 0.122061 -2.63811 0.01 
132 1 14 -0.0490748 0.121857 0.0197943 0.0933689 -0.144845 -1.03686 0 0 0 -2.03963 0.122061 -2.63811 0.01 
133 1 14 -0.0490919 0.12194 0.0287939 0.0946871 -0.126444 -1.03703 0 0 0 -2.03963 0.122061 -2.63811 0.01 
134 1 14 -0.049109 0.122023 0.0377935 0.0960053 -0.108043 -1.0372 0 0 0 -2.03963 0.122061 -2.63811 0.01 
135 1 14 -0.0491261 0.122107 0.0467931 0.0973235 -0.0896425 -1.03737 0 0 0 -2.03963 0.122061 -2.63811 0.01 
136 1 14 -0.0491432 0.12219 0.0557927 0.0986418 -0.0712415 -1.03753 0 0 0 -2.03963 0.122061 -2.63811 0.01 
137 1 14 -0.0491603 0.122273 0.0647923 0.09996 -0.0528405 -1.0377 0 0 0 -2.03963 0.122061 -2.63811 0.01 
138 1 14 -0.0491774 0.122356 0.0737919 0.101278 -0.0344395 -1.03787 0 0 0 -2.03963 0.122061 -2.63811 0.01 
139 1 14 -0.0491945 0.12244 0.0827915 0.102596 -0.0160385 -1.03804 0 0 0 -2.03963 0.122061 -2.63811 0.01 
140 1 14 -0.0492116 0.122523 0.0917911 0.103915 0.0023625 -1.0382 0 0 0 -2.03963 0.122061 -2.63811 0.01 
141 1 15 -0.0104758 -0.0692281 0.144147 0 0 -1.88285 0 0 0 0 0 0 0.01 
142 1 15 -0.0104758 -0.0692281 0.153147 0 0 -1.88285 0 0 0 0 0 0 0.01 
143 1 15 -0.0104758 -0.0692281 0.162147 0 0 -1.88285 0 0 0 0 0 0 0.01 
144 1 15 -0.0104758 -0.0692281 0.171147 0 0 -1.88285 0 0 0 0 0 0 0.01 
145 1 15 -0.0104758 -0.0692281 0.180147 0 0 -1.88285 0 0 0 0 0 0 0.01 
146 1 15 -0.0104758 -0.0692281 0.189147 0 0 -1.88285 0 0 0 0 0 0 0.01 
147 1 15 -0.0104758 -0.0692281 0.198147 0 0 -1.88285 0 0 0 0 0 0 0.01 
148 1 15 -0.0104758 -0.0692281 0.207147 0 0 -1.88285 0 0 0 0 0 0 0.01 
149 1 15 -0.0104758 -0.0692281 0.216147 0 0 -1.88285 0 0 0 0 0 0 0.01 
150 1 15 -0.0104758 -0.0692281 0.225147 0 0 -1.88285 0 0 0 0 0 0 0.01 
151 1 16 -0.0387123 0.179422 0.0866544 0.0651477 0.030593 -0.996138 0.432307 0.927026 0.51512 0.0894532 -0.44152 -0.588254 0.01 
152 1 16 -0.0389275 0.179112 0.0956465 0.0609952 0.0299152 -0.996261 0 0 0 0.0894532 -0.44152 -0.588254 0.01 
153 1 16 -0.0391426 0.178802 0.104639 0.0568427 0.0292374 -0.996384 0 0 0 0.0894532 -0.44152 -0.588254 0.01 
154 1 16 -0.0393578 0.178492 0.113631 0.0526902 0.0285597 -0.996507 0 0 0 0.0894532 -0.44152 -0.588254 0.01 
155 1 16 -0.039573 0.178182 0.122623 0.0485377 0.0278819 -0.996629 0 0 0 0.0894532 -0.44152 -0.588254 0.01 
156 1 16 -0.0397882 0.177872 0.131615 0.0443851 0.0272041 -0.996752 0 0 0 0.0894532 -0.44152 -0.588254 0.01 
157 1 16 -0.0400034 0.177562 0.140607 0.0402326 0.0265263 -0.996875 0 0 0 0.0894532 -0.44152 -0.588254 0.01 
158 1 16 -0.0402185 0.177252 0.149599 0.0360801 0.0258485 -0.996998 0 0 0 0.0894532 -0.44152 -0.588254 0.01 
159 1 16 -0.0404337 0.176942 0.158591 0.0319276 0.0251707 -0.99712 0 0 0 0.0894532 -0.44152 -0.588254 0.01 
160 1 16 -0.0406489 0.176632 0.167583 0.0277751 0.0244929 -0.997243 0 0 0 0.0894532 -0.44152 -0.588254 0.01 
161 1 17 0.0729969 0.0923538 0.00968457 -0.0243563 0.000266755 0.223276 0.531896 -0.0630647 -1.07211 0.201316 -0.43011 -3.93844 0.01 
162 1 17 0.0729404 0.0923382 0.0186844 -0.0282886 -0.00132277 0.223248 0 0 0 0.201316 -0.43011 -3.93844 0.01 
163 1 17 0.072884 0.0923226 0.0276842 -0.0322208 -0.0029123 0.223221 0 0 0 0.201316 -0.43011 -3.93844 0.01 
164 1 17 0.0728276 0.0923071 0.036684 -0.036153 -0.00450182 0.223193 0 0 0 0.201316 -0.43011 -3.93844 0.01 
165 1 17 0.0727711 0.0922915 0.0456838 -0.0400852 -0.00609135 0.223166 0 0 0 0.201316 -0.43011 -3.93844 0.01 
166 1 17 0.0727147 0.0922759 0.0546836 -0.0440174 -0.00768087 0.223139 0 0 0 0.201316 -0.43011 -3.93844 0.01 
167 1 17 0.0726583 0.0922604 0.0636834 -0.0479496 -0.0092704 0.223111 0 0 0 0.201316 -0.43011 -3.93844 0.01 
168 1 17 0.0726018 0.0922448 0.0726832 -0.0518819 -0.0108599 0.223084 -0.302808 0.0264268 -0.17485 0.201316 -0.43011 -3.93844 0.01 
169 1 17 0.0725454 0.0922292 0.081683 -0.0558141 -0.0124494 0.223056 -0.20926 6.19083e-05 -0.110737 0.201316 -0.43011 -3.93844 0.01 
170 1 17 0.0724889 0.0922137 0.0906829 -0.0597463 -0.014039 0.223029 1.24448 0.0885262 -0.00455656 0.201316 -0.43011 -3.93844 0.01 
171 1 18 -0.239089 -0.0378682 0.190421 -0.0787872 -0.287291 -1.06872 0 0 0 -3.50709 0.335282 -5.40145 0.01 
172 1 18 -0.238982 -0.0374271 0.19941 -0.0733909 -0.256342 -1.07031 0 0 0 -3.50709 0.335282 -5.40145 0.01 
173 1 18 -0.238876 -0.036986 0.208398 -0.0679946 -0.225392 -1.07189 0 0 0 -3.50709 0.335282 -5.40145 0.01 
174 1 18 -0.23877 -0.0365449 0.217387 -0.0625983 -0.194443 -1.07347 0 0 0 -3.50709 0.335282 -5.40145 0.01 
175 1 18 -0.238663 -0.0361038 0.226376 -0.057202 -0.163494 -1.07505 0 0 0 -3.50709 0.335282 -5.40145 0.01 
176 1 18 -0.238557 -0.0356627 0.235364 -0.0518057 -0.132544 -1.07664 0 0 0 -3.50709 0.335282 -5.40145 0.01 
177 1 18 -0.238451 -0.0352216 0.244353 -0.0464094 -0.101595 -1.07822 0 0 0 -3.50709 0.335282 -5.40145 0.01 
178 1 18 -0.238344 -0.0347805 0.253341 -0.0410131 -0.0706458 -1.0798 0 0 0 -3.50709 0.335282 -5.40145 0.01 
179 1 18 -0.238238 -0.0343394 0.26233 -0.0356168 -0.0396965 -1.08139 0 0 0 -3.50709 0.335282 -5.40145 0.01 
180 1 18 -0.238132 -0.0338983 0.271318 -0.0302205 -0.00874717 -1.08297 0 0 0 -3.50709 0.335282 -5.40145 0.01 
181 1 19 0.00334189 0.165527 0.15754 0 0 -1.88285 0 0 0 0 0 0 0.01 
182 1 19 0.00334189 0.165527 0.16654 0 0 -1.88285 0 0 0 0 0 0 0.01 
183 1 19 0.00334189 0.165527 0.17554 0 0 -1.88285 0 0 0 0 0 0 0.01 
184 1 19 0.00334189 0.165527 0.18454 0 0 -1.88285 0 0 0 0 0 0 0.01 
185 1 19 0.00334189 0.165527 0.19354 0 0 -1.88285 0 0 0 0 0 0 0.01 
186 1 19 0.00334189 0.165527 0.20254 0 0 -1.88285 0 0 0 0 0 0 0.01 
187 1 19 0.00334189 0.165527 0.21154 0 0 -1.88285 0 0 0 0 0 0 0.01 
188 1 19 0.00334189 0.165527 0.22054 0 0 -1.88285 0 0 0 0 0 0 0.01 
189 1 19 0.00334189 0.165527 0.22954 0 0 -1.88285 0 0 0 0 0 0 0.01 
190 1 19 0.00334189 0.165527 0.23854 0 0 -1.88285 0 0 0 0 0 0 0.01 
191 1 20 -0.00709964 0.187365 0.00936978 0.00765804 0.0185653 0.357806 -0.0608333 0.0129896 2.26705 -2.21257 0.95535 7.06475 0.01 
192 1 20 -0.00706311 0.187445 0.0183693 0.0156861 0.0387355 0.357593 0 0 0 -2.21257 0.95535 7.06475 0.01 
193 1 20 -0.00702658 0.187526 0.0273689 0.0237141 0.0589058 0.357379 0 0 0 -2.21257 0.95535 7.06475 0.01 
194 1 20 -0.00699005 0.187606 0.0363685 0.0317421 0.0790761 0.357166 0 0 0 -2.21257 0.95535 7.06475 0.01 
195 1 20 -0.00695352 0.187687 0.045368 0.0397701 0.0992463 0.356953 0 0 0 -2.21257 0.95535 7.06475 0.01 
196 1 20 -0.00691699 0.187768 0.0543676 0.0477981 0.119417 0.356739 0 0 0 -2.21257 0.95535 7.06475 0.01 
197 1 20 -0.00688046 0.187848 0.0633672 0.0558261 0.139587 0.356526 0 0 0 -2.21257 0.95535 7.06475 0.01 
198 1 20 -0.00684393 0.187929 0.0723667 0.0638542 0.159757 0.356313 0 0 0 -2.21257 0.95535 7.06475 0.01 
199 1 20 -0.0068074 0.18801 0.0813663 0.0718822 0.179927 0.356099 0.0124078 0.00430694 -0.00594621 -2.21257 0.95535 7.06475 0.01 
200 1 20 -0.00677088 0.18809 0.0903659 0.0799102 0.200098 0.355886 0.0261228 0.141808 -1.88054 -2.21257 0.95535 7.06475 0.01 
201 1 21 0.019193 0.0038625 0.00985012 -0.0134556 0.0141446 0.0169214 -0.267536 0.037704 1.00717 -1.34352 -0.937623 -2.08906 0.01 
202 1 21 0.0188124 0.00423824 0.0188342 -0.0210943 0.0270099 0.0160598 0.0273639 -0.00334659 -0.0144105 -1.34352 -0.937623 -2.08906 0.01 
203 1 21 0.0184319 0.00461398 0.0278183 -0.0287331 0.0398752 0.0151982 -0.118268 0.0108838 -0.0566862 -1.34352 -0.937623 -2.08906 0.01 
204 1 21 0.0180514 0.00498972 0.0368024 -0.0363718 0.0527405 0.0143366 0 0 0 -1.34352 -0.937623 -2.08906 0.01 
205 1 21 0.0176708 0.00536546 0.0457865 -0.0440106 0.0656058 0.0134749 0 0 0 -1.34352 -0.937623 -2.08906 0.01 
206 1 21 0.0172903 0.0057412 0.0547706 -0.0516493 0.078471 0.0126133 0 0 0 -1.34352 -0.937623 -2.08906 0.01 
207 1 21 0.0169098 0.00611694 0.0637547 -0.0592881 0.0913363 0.0117517 0 0 0 -1.34352 -0.937623 -2.08906 0.01 
208 1 21 0.0165292 0.00649268 0.0727388 -0.0669268 0.104202 0.0108901 0 0 0 -1.34352 -0.937623 -2.08906 0.01 
209 1 21 0.0161487 0.00686842 0.0817229 -0.0745656 0.117067 0.0100285 0 0 0 -1.34352 -0.937623 -2.08906 0.01 
210 1 21 0.0157682 0.00724416 0.090707 -0.0822043 0.129932 0.00916689 0 0 0 -1.34352 -0.937623 -2.08906 0.01 
211 1 22 0.00289755 0.197355 0.117547 0 0 -1.88285 0 0 0 0 0 0 0.01 
212 1 22 0.00289755 0.197355 0.126547 0 0 -1.88285 0 0 0 0 0 0 0.01 
213 1 22 0.00289755 0.197355 0.135547 0 0 -1.88285 0 0 0 0 0 0 0.01 
214 1 22 0.00289755 0.197355 0.144547 0 0 -1.88285 0 0 0 0 0 0 0.01 
215 1 22 0.00289755 0.197355 0.153547 0 0 -1.88285 0 0 0 0 0 0 0.01 
216 1 22 0.00289755 0.197355 0.162547 0 0 -1.88285 0 0 0 0 0 0 0.01 
217 1 22 0.00289755 0.197355 0.171547 0 0 -1.88285 0 0 0 0 0 0 0.01 
218 1 22 0.00289755 0.197355 0.180547 0 0 -1.88285 0 0 0 0 0 0 0.01 
219 1 22 0.00289755 0.197355 0.189547 0 0 -1.88285 0 0 0 0 0 0 0.01 
220 1 22 0.00289755 0.197355 0.198547 0 0 -1.88285 0 0 0 0 0 0 0.01 
221 1 23 0.214349 0.0539113 0.207079 0 0 -1.88285 0 0 0 0 0 0 0.01 
222 1 23 0.214349 0.0539113 0.216079 0 0 -1.88285 0 0 0 0 0 0 0.01 
223 1 23 0.214349 0.0539113 0.225079 0 0 -1.88285 0 0 0 0 0 0 0.01 
224 1 23 0.214349 0.0539113 0.234079 0 0 -1.88285 0 0 0 0 0 0 0.01 
225 1 23 0.214349 0.0539113 0.243079 0 0 -1.88285 0 0 0 0 0 0 0.01 
226 1 23 0.214349 0.0539113 0.252079 0 0 -1.88285 0 0 0 0 0 0 0.01 
227 1 23 0.214349 0.0539113 0.261079 0 0 -1.88285 0 0 0 0 0 0 0.01 
228 1 23 0.214349 0.0539113 0.270079 0 0 -1.88285 0 0 0 0 0 0 0.01 
229 1 23 0.214349 0.0539113 0.279079 0 0 -1.88285 0 0 0 0 0 0 0.01 
230 1 23 0.214349 0.0539113 0.288079 0 0 -1.88285 0 0 0 0 0 0 0.01 
231 1 24 0.157686 0.0252727 0.00988771 0.0134626 -0.0367805 0.100111 -0.113838 0.174564 -0.999614 3.13395 0.956984 -0.723021 0.01 
232 1 24 0.157741 0.0247085 0.0188698 0.0216504 -0.0649703 0.0982889 0 0 0 3.13395 0.956984 -0.723021 0.01 
233 1 24 0.157797 0.0241442 0.027852 0.0298381 -0.0931601 0.0964673 0 0 0 3.13395 0.956984 -0.723021 0.01 
234 1 24 0.157853 0.02358 0.0368341 0.0380259 -0.12135 0.0946457 0 0 0 3.13395 0.956984 -0.723021 0.01 
235 1 24 0.157908 0.0230158 0.0458162 0.0462137 -0.14954 0.0928241 0 0 0 3.13395 0.956984 -0.723021 0.01 
236 1 24 0.157964 0.0224515 0.0547983 0.0544015 -0.17773 0.0910025 0 0 0 3.13395 0.956984 -0.723021 0.01 
237 1 24 0.15802 0.0218873 0.0637804 0.0625893 -0.205919 0.0891809 0 0 0 3.13395 0.956984 -0.723021 0.01 
238 1 24 0.158076 0.021323 0.0727626 0.0707771 -0.234109 0.0873592 0 0 0 3.13395 0.956984 -0.723021 0.01 
239 1 24 0.158131 0.0207588 0.0817447 0.0789649 -0.262299 0.0855376 0 0 0 3.13395 0.956984 -0.723021 0.01 
240 1 24 0.158187 0.0201945 0.0907268 0.0871527 -0.290489 0.083716 0 0 0 3.13395 0.956984 -0.723021 0.01 
241 1 25 0.134963 -0.174125 0.144903 0 0 -1.88285 0 0 0 0 0 0 0.01 
242 1 25 0.134963 -0.174125 0.153903 0 0 -1.88285 0 0 0 0 0 0 0.01 
243 1 25 0.134963 -0.174125 0.162903 0 0 -1.88285 0 0 0 0 0 0 0.01 
244 1 25 0.134963 -0.174125 0.171903 0 0 -1.88285 0 0 0 0 0 0 0.01 
245 1 25 0.134963 -0.174125 0.180903 0 0 -1.88285 0 0 0 0 0 0 0.01 
246 1 25 0.134963 -0.174125 0.189903 0 0 -1.88285 0 0 0 0 0 0 0.01 
247 1 25 0.134963 -0.174125 0.198903 0 0 -1.88285 0 0 0 0 0 0 0.01 
248 1 25 0.134963 -0.174125 0.207903 0 0 -1.88285 0 0 0 0 0 0 0.01 
249 1 25 0.134963 -0.174125 0.216903 0 0 -1.88285 0 0 0 0 0 0 0.01 
250 1 25 0.134963 -0.174125 0.225903 0 0 -1.88285 0 0 0 0 0 0 0.01 
251 1 26 -0.00950267 -0.169913 0.0191953 -0.0445904 0.0489153 -1.78762 0 0 0 2.12843 1.79292 1.07831 0.01 
252 1 26 -0.00938803 -0.170045 0.0281936 -0.028314 0.0298867 -1.7881 0 0 0 2.12843 1.79292 1.07831 0.01 
253 1 26 -0.00927339 -0.170178 0.0371919 -0.0120375 0.0108581 -1.78859 0 0 0 2.12843 1.79292 1.07831 0.01 
254 1 26 -0.00915876 -0.170311 0.0461901 0.00423904 -0.00817045 -1.78908 0 0 0 2.12843 1.79292 1.07831 0.01 
255 1 26 -0.00904412 -0.170444 0.0551884 0.0205155 -0.027199 -1.78957 0 0 0 2.12843 1.79292 1.07831 0.01 
256 1 26 -0.00892948 -0.170577 0.0641867 0.036792 -0.0462276 -1.79006 0 0 0 2.12843 1.79292 1.07831 0.01 
257 1 26 -0.00881484 -0.17071 0.073185 0.0530685 -0.0652562 -1.79054 0 0 0 2.12843 1.79292 1.07831 0.01 
258 1 26 -0.00870021 -0.170842 0.0821833 0.069345 -0.0842847 -1.79103 0 0 0 2.12843 1.79292 1.07831 0.01 
259 1 26 -0.00858557 -0.170975 0.0911816 0.0856215 -0.103313 -1.79152 0 0 0 2.12843 1.79292 1.07831 0.01 
260 1 26 -0.00847093 -0.171108 0.10018 0.101898 -0.122342 -1.79201 0 0 0 2.12843 1.79292 1.07831 0.01 
261 1 27 -0.14488 0.151564 0.148244 0.0391888 0.0427201 -1.59657 0 0 0 0.863869 -0.379987 -0.976097 0.01 
262 1 27 -0.144949 0.151389 0.157242 0.0355994 0.0350147 -1.59675 0 0 0 0.863869 -0.379987 -0.976097 0.01 
263 1 27 -0.145019 0.151215 0.16624 0.03201 0.0273093 -1.59693 0 0 0 0.863869 -0.379987 -0.976097 0.01 
264 1 27 -0.145088 0.151041 0.175238 0.0284205 0.0196038 -1.5971 0 0 0 0.863869 -0.379987 -0.976097 0.01 
265 1 27 -0.145158 0.150866 0.184236 0.0248311 0.0118984 -1.59728 0 0 0 0.863869 -0.379987 -0.976097 0.01 
266 1 27 -0.145227 0.150692 0.193234 0.0212417 0.00419298 -1.59746 0 0 0 0.863869 -0.379987 -0.976097 0.01 
267 1 27 -0.145296 0.150517 0.202232 0.0176522 -0.00351245 -1.59763 0 0 0 0.863869 -0.379987 -0.976097 0.01 
268 1 27 -0.145366 0.150343 0.21123 0.0140628 -0.0112179 -1.59781 0 0 0 0.863869 -0.379987 -0.976097 0.01 
269 1 27 -0.145435 0.150168 0.220228 0.0104734 -0.0189233 -1.59799 0 0 0 0.863869 -0.379987 -0.976097 0.01 
270 1 27 -0.145504 0.149994 0.229226 0.00688397 -0.0266287 -1.59817 0 0 0 0.863869 -0.379987 -0.976097 0.01 
271 1 28 0.0143624 -0.169045 0.106943 -0.072128 0.0735888 -0.227229 0.0458777 -0.0654768 -0.994485 -0.92849 -0.793831 -0.0855802 0.01 
272 1 28 0.0143233 -0.169002 0.115943 -0.0792686 0.0819483 -0.227299 0 0 0 -0.92849 -0.793831 -0.0855802 0.01 
273 1 28 0.0142842 -0.168959 0.124943 -0.0864093 0.0903079 -0.22737 0 0 0 -0.92849 -0.793831 -0.0855802 0.01 
274 1 28 0.0142451 -0.168916 0.133942 -0.09355 0.0986675 -0.227441 0 0 0 -0.92849 -0.793831 -0.0855802 0.01 
275 1 28 0.0142059 -0.168874 0.142942 -0.100691 0.107027 -0.227512 0 0 0 -0.92849 -0.793831 -0.0855802 0.01 
276 1 28 0.0141668 -0.168831 0.151942 -0.107831 0.115387 -0.227583 0 0 0 -0.92849 -0.793831 -0.0855802 0.01 
277 1 28 0.0141277 -0.168788 0.160942 -0.114972 0.123746 -0.227653 0 0 0 -0.92849 -0.793831 -0.0855802 0.01 
278 1 28 0.0140886 -0.168745 0.169942 -0.122113 0.132106 -0.227724 0 0 0 -0.92849 -0.793831 -0.0855802 0.01 
279 1 28 0.0140495 -0.168702 0.178942 -0.129253 0.140465 -0.227795 0 0 0 -0.92849 -0.793831 -0.0855802 0.01 
280 1 28 0.0140104 -0.16866 0.187941 -0.136394 0.148825 -0.227866 0 0 0 -0.92849 -0.793831 -0.0855802 0.01 
281 1 29 0.0770886 0.12633 0.018034 -1.55083e-06 0.000114276 0.243152 0 0 0 -0.00370888 -5.03335e-05 -2.58476e-06 0.01 
282 1 29 0.0770885 0.126331 0.027034 -2.00383e-06 0.000147656 0.243152 0 0 0 -0.00370888 -5.03335e-05 -2.58476e-06 0.01 
283 1 29 0.0770885 0.126332 0.036034 -2.45683e-06 0.000181036 0.243152 0 0 0 -0.00370888 -5.03335e-05 -2.58476e-06 0.01 
284 1 29 0.0770885 0.126333 0.045034 -2.90983e-06 0.000214416 0.243152 0 0 0 -0.00370888 -5.03335e-05 -2.58476e-06 0.01 
285 1 29 0.0770885 0.126334 0.054034 -3.36283e-06 0.000247796 0.243152 0 0 0 -0.00370888 -5.03335e-05 -2.58476e-06 0.01 
286 1 29 0.0770885 0.126334 0.063034 -3.81583e-06 0.000281176 0.243152 0 0 0 -0.00370888 -5.03335e-05 -2.58476e-06 0.01 
287 1 29 0.0770885 0.126335 0.072034 -4.26882e-06 0.000314556 0.243152 0 0 0 -0.00370888 -5.03335e-05 -2.58476e-06 0.01 
288 1 29 0.0770885 0.126336 0.081034 -4.72182e-06 0.000347936 0.243152 0 0 0 -0.00370888 -5.03335e-05 -2.58476e-06 0.01 
289 1 29 0.0770885 0.126337 0.090034 -5.17482e-06 0.000381316 0.243152 0 0 0 -0.00370888 -5.03335e-05 -2.58476e-06 0.01 
290 1 29 0.0770884 0.126338 0.099034 -5.62782e-06 0.000414696 0.243152 0 0 0 -0.00370888 -5.03335e-05 -2.58476e-06 0.01 
291 1 30 -0.0622987 -0.0566083 0.204736 0 0 -1.88285 0 0 0 0 0 0 0.01 
292 1 30 -0.0622987 -0.0566083 0.213736 0 0 -1.88285 0 0 0 0 0 0 0.01 
293 1 30 -0.0622987 -0.0566083 0.222736 0 0 -1.88285 0 0 0 0 0 0 0.01 
294 1 30 -0.0622987 -0.0566083 0.231736 0 0 -1.88285 0 0 0 0 0 0 0.01 
295 1 30 -0.0622987 -0.0566083 0.240736 0 0 -1.88285 0 0 0 0 0 0 0.01 
296 1 30 -0.0622987 -0.0566083 0.249736 0 0 -1.88285 0 0 0 0 0 0 0.01 
297 1 30 -0.0622987 -0.0566083 0.258736 0 0 -1.88285 0 0 0 0 0 0 0.01 
298 1 30 -0.0622987 -0.0566083 0.267736 0 0 -1.88285 0 0 0 0 0 0 0.01 
299 1 30 -0.0622987 -0.0566083 0.276736 0 0 -1.88285 0 0 0 0 0 0 0.01 
300 1 30 -0.0622987 -0.0566083 0.285736 0 0 -1.88285 0 0 0 0 0 0 0.01 
301 1 31 0.0117553 0.0648056 0.0112831 0.0209259 0.0199373 0.0236826 0 0 0 -1.87174 1.96583 0.0117825 0.01 
302 1 31 0.0122028 0.0652318 0.0202618 0.0385716 0.0367484 0.0220051 0 0 0 -1.87174 1.96583 0.0117825 0.01 
303 1 31 0.0126503 0.0656581 0.0292406 0.0562173 0.0535595 0.0203276 0 0 0 -1.87174 1.96583 0.0117825 0.01 
304 1 31 0.0130978 0.0660843 0.0382193 0.073863 0.0703707 0.0186501 0 0 0 -1.87174 1.96583 0.0117825 0.01 
305 1 31 0.0135453 0.0665105 0.0471981 0.0915087 0.0871818 0.0169726 0 0 0 -1.87174 1.96583 0.0117825 0.01 
306 1 31 0.0139928 0.0669368 0.0561769 0.109154 0.103993 0.0152951 0 0 0 -1.87174 1.96583 0.0117825 0.01 
307 1 31 0.0144403 0.067363 0.0651556 0.1268 0.120804 0.0136176 0 0 0 -1.87174 1.96583 0.0117825 0.01 
308 1 31 0.0148878 0.0677893 0.0741344 0.144446 0.137615 0.0119401 0 0 0 -1.87174 1.96583 0.0117825 0.01 
309 1 31 0.0153353 0.0682155 0.0831131 0.162091 0.154426 0.0102626 0 0 0 -1.87174 1.96583 0.0117825 0.01 