ITEM: TIMESTEP
5000
ITEM: NUMBER OF ATOMS
6300
ITEM: BOX BOUNDS mm mm mm
-0.3 0.3
-0.3 0.3
0 0.5
ITEM: ATOMS id type mol x y z vx vy vz fx fy fz omegax omegay omegaz radius 
1 1 1 -0.115317 -0.129414 0.181934 0 0 -1.49045 0 0 0 0 0 0 0.01 
2 1 1 -0.115317 -0.129414 0.190934 0 0 -1.49045 0 0 0 0 0 0 0.01 
3 1 1 -0.115317 -0.129414 0.199934 0 0 -1.49045 0 0 0 0 0 0 0.01 
4 1 1 -0.115317 -0.129414 0.208934 0 0 -1.49045 0 0 0 0 0 0 0.01 
5 1 1 -0.115317 -0.129414 0.217934 0 0 -1.49045 0 0 0 0 0 0 0.01 
6 1 1 -0.115317 -0.129414 0.226934 0 0 -1.49045 0 0 0 0 0 0 0.01 
7 1 1 -0.115317 -0.129414 0.235934 0 0 -1.49045 0 0 0 0 0 0 0.01 
8 1 1 -0.115317 -0.129414 0.244934 0 0 -1.49045 0 0 0 0 0 0 0.01 
9 1 1 -0.115317 -0.129414 0.253934 0 0 -1.49045 0 0 0 0 0 0 0.01 
10 1 1 -0.115317 -0.129414 0.262934 0 0 -1.49045 0 0 0 0 0 0 0.01 
11 1 2 -0.0460582 -0.101391 0.171474 0 0 -1.49045 0 0 0 0 0 0 0.01 
12 1 2 -0.0460582 -0.101391 0.180474 0 0 -1.49045 0 0 0 0 0 0 0.01 
13 1 2 -0.0460582 -0.101391 0.189474 0 0 -1.49045 0 0 0 0 0 0 0.01 
14 1 2 -0.0460582 -0.101391 0.198474 0 0 -1.49045 0 0 0 0 0 0 0.01 
15 1 2 -0.0460582 -0.101391 0.207474 0 0 -1.49045 0 0 0 0 0 0 0.01 
16 1 2 -0.0460582 -0.101391 0.216474 0 0 -1.49045 0 0 0 0 0 0 0.01 
17 1 2 -0.0460582 -0.101391 0.225474 0 0 -1.49045 0 0 0 0 0 0 0.01 
18 1 2 -0.0460582 -0.101391 0.234474 0 0 -1.49045 0 0 0 0 0 0 0.01 
19 1 2 -0.0460582 -0.101391 0.243474 0 0 -1.49045 0 0 0 0 0 0 0.01 
20 1 2 -0.0460582 -0.101391 0.252474 0 0 -1.49045 0 0 0 0 0 0 0.01 
21 1 3 -0.0433468 -0.0313624 0.157532 0 0 -1.49045 0 0 0 0 0 0 0.01 
22 1 3 -0.0433468 -0.0313624 0.166532 0 0 -1.49045 0 0 0 0 0 0 0.01 
23 1 3 -0.0433468 -0.0313624 0.175532 0 0 -1.49045 0 0 0 0 0 0 0.01 
24 1 3 -0.0433468 -0.0313624 0.184532 0 0 -1.49045 0 0 0 0 0 0 0.01 
25 1 3 -0.0433468 -0.0313624 0.193532 0 0 -1.49045 0 0 0 0 0 0 0.01 
26 1 3 -0.0433468 -0.0313624 0.202532 0 0 -1.49045 0 0 0 0 0 0 0.01 
27 1 3 -0.0433468 -0.0313624 0.211532 0 0 -1.49045 0 0 0 0 0 0 0.01 
28 1 3 -0.0433468 -0.0313624 0.220532 0 0 -1.49045 0 0 0 0 0 0 0.01 
29 1 3 -0.0433468 -0.0313624 0.229532 0 0 -1.49045 0 0 0 0 0 0 0.01 
30 1 3 -0.0433468 -0.0313624 0.238532 0 0 -1.49045 0 0 0 0 0 0 0.01 
31 1 4 -0.0929903 0.110329 0.0982945 0 0 -1.49045 0 0 0 0 0 0 0.01 
32 1 4 -0.0929903 0.110329 0.107294 0 0 -1.49045 0 0 0 0 0 0 0.01 
33 1 4 -0.0929903 0.110329 0.116294 0 0 -1.49045 0 0 0 0 0 0 0.01 
34 1 4 -0.0929903 0.110329 0.125294 0 0 -1.49045 0 0 0 0 0 0 0.01 
35 1 4 -0.0929903 0.110329 0.134294 0 0 -1.49045 0 0 0 0 0 0 0.01 
36 1 4 -0.0929903 0.110329 0.143294 0 0 -1.49045 0 0 0 0 0 0 0.01 
37 1 4 -0.0929903 0.110329 0.152294 0 0 -1.49045 0 0 0 0 0 0 0.01 
38 1 4 -0.0929903 0.110329 0.161294 0 0 -1.49045 0 0 0 0 0 0 0.01 
39 1 4 -0.0929903 0.110329 0.170294 0 0 -1.49045 0 0 0 0 0 0 0.01 
40 1 4 -0.0929903 0.110329 0.179294 0 0 -1.49045 0 0 0 0 0 0 0.01 
41 1 5 0.0772217 -0.137096 0.116165 0 0 -1.49045 0 0 0 0 0 0 0.01 
42 1 5 0.0772217 -0.137096 0.125165 0 0 -1.49045 0 0 0 0 0 0 0.01 
43 1 5 0.0772217 -0.137096 0.134165 0 0 -1.49045 0 0 0 0 0 0 0.01 
44 1 5 0.0772217 -0.137096 0.143165 0 0 -1.49045 0 0 0 0 0 0 0.01 
45 1 5 0.0772217 -0.137096 0.152165 0 0 -1.49045 0 0 0 0 0 0 0.01 
46 1 5 0.0772217 -0.137096 0.161165 0 0 -1.49045 0 0 0 0 0 0 0.01 
47 1 5 0.0772217 -0.137096 0.170165 0 0 -1.49045 0 0 0 0 0 0 0.01 
48 1 5 0.0772217 -0.137096 0.179165 0 0 -1.49045 0 0 0 0 0 0 0.01 
49 1 5 0.0772217 -0.137096 0.188165 0 0 -1.49045 0 0 0 0 0 0 0.01 
50 1 5 0.0772217 -0.137096 0.197165 0 0 -1.49045 0 0 0 0 0 0 0.01 
51 1 6 0.170849 -0.044483 0.146734 0 0 -1.49045 0 0 0 0 0 0 0.01 
52 1 6 0.170849 -0.044483 0.155734 0 0 -1.49045 0 0 0 0 0 0 0.01 
53 1 6 0.170849 -0.044483 0.164734 0 0 -1.49045 0 0 0 0 0 0 0.01 
54 1 6 0.170849 -0.044483 0.173734 0 0 -1.49045 0 0 0 0 0 0 0.01 
55 1 6 0.170849 -0.044483 0.182734 0 0 -1.49045 0 0 0 0 0 0 0.01 
56 1 6 0.170849 -0.044483 0.191734 0 0 -1.49045 0 0 0 0 0 0 0.01 
57 1 6 0.170849 -0.044483 0.200734 0 0 -1.49045 0 0 0 0 0 0 0.01 
58 1 6 0.170849 -0.044483 0.209734 0 0 -1.49045 0 0 0 0 0 0 0.01 
59 1 6 0.170849 -0.044483 0.218734 0 0 -1.49045 0 0 0 0 0 0 0.01 
60 1 6 0.170849 -0.044483 0.227734 0 0 -1.49045 0 0 0 0 0 0 0.01 
61 1 7 -0.0369062 0.215855 0.149257 0 0 -1.49045 0 0 0 0 0 0 0.01 
62 1 7 -0.0369062 0.215855 0.158257 0 0 -1.49045 0 0 0 0 0 0 0.01 
63 1 7 -0.0369062 0.215855 0.167257 0 0 -1.49045 0 0 0 0 0 0 0.01 
64 1 7 -0.0369062 0.215855 0.176257 0 0 -1.49045 0 0 0 0 0 0 0.01 
65 1 7 -0.0369062 0.215855 0.185257 0 0 -1.49045 0 0 0 0 0 0 0.01 
66 1 7 -0.0369062 0.215855 0.194257 0 0 -1.49045 0 0 0 0 0 0 0.01 
67 1 7 -0.0369062 0.215855 0.203257 0 0 -1.49045 0 0 0 0 0 0 0.01 
68 1 7 -0.0369062 0.215855 0.212257 0 0 -1.49045 0 0 0 0 0 0 0.01 
69 1 7 -0.0369062 0.215855 0.221257 0 0 -1.49045 0 0 0 0 0 0 0.01 
70 1 7 -0.0369062 0.215855 0.230257 0 0 -1.49045 0 0 0 0 0 0 0.01 
71 1 8 0.122768 -0.136526 0.164114 0 0 -1.49045 0 0 0 0 0 0 0.01 
72 1 8 0.122768 -0.136526 0.173114 0 0 -1.49045 0 0 0 0 0 0 0.01 
73 1 8 0.122768 -0.136526 0.182114 0 0 -1.49045 0 0 0 0 0 0 0.01 
74 1 8 0.122768 -0.136526 0.191114 0 0 -1.49045 0 0 0 0 0 0 0.01 
75 1 8 0.122768 -0.136526 0.200114 0 0 -1.49045 0 0 0 0 0 0 0.01 
76 1 8 0.122768 -0.136526 0.209114 0 0 -1.49045 0 0 0 0 0 0 0.01 
77 1 8 0.122768 -0.136526 0.218114 0 0 -1.49045 0 0 0 0 0 0 0.01 
78 1 8 0.122768 -0.136526 0.227114 0 0 -1.49045 0 0 0 0 0 0 0.01 
79 1 8 0.122768 -0.136526 0.236114 0 0 -1.49045 0 0 0 0 0 0 0.01 
80 1 8 0.122768 -0.136526 0.245114 0 0 -1.49045 0 0 0 0 0 0 0.01 
81 1 9 -0.103348 0.0216352 0.296104 0 0 -1.49045 0 0 0 0 0 0 0.01 
82 1 9 -0.103348 0.0216352 0.305104 0 0 -1.49045 0 0 0 0 0 0 0.01 
83 1 9 -0.103348 0.0216352 0.314104 0 0 -1.49045 0 0 0 0 0 0 0.01 
84 1 9 -0.103348 0.0216352 0.323104 0 0 -1.49045 0 0 0 0 0 0 0.01 
85 1 9 -0.103348 0.0216352 0.332104 0 0 -1.49045 0 0 0 0 0 0 0.01 
86 1 9 -0.103348 0.0216352 0.341104 0 0 -1.49045 0 0 0 0 0 0 0.01 
87 1 9 -0.103348 0.0216352 0.350104 0 0 -1.49045 0 0 0 0 0 0 0.01 
88 1 9 -0.103348 0.0216352 0.359104 0 0 -1.49045 0 0 0 0 0 0 0.01 
89 1 9 -0.103348 0.0216352 0.368104 0 0 -1.49045 0 0 0 0 0 0 0.01 
90 1 9 -0.103348 0.0216352 0.377104 0 0 -1.49045 0 0 0 0 0 0 0.01 
91 1 10 0.0526392 0.204817 0.132574 0 0 -1.49045 0 0 0 0 0 0 0.01 
92 1 10 0.0526392 0.204817 0.141574 0 0 -1.49045 0 0 0 0 0 0 0.01 
93 1 10 0.0526392 0.204817 0.150574 0 0 -1.49045 0 0 0 0 0 0 0.01 
94 1 10 0.0526392 0.204817 0.159574 0 0 -1.49045 0 0 0 0 0 0 0.01 
95 1 10 0.0526392 0.204817 0.168574 0 0 -1.49045 0 0 0 0 0 0 0.01 
96 1 10 0.0526392 0.204817 0.177574 0 0 -1.49045 0 0 0 0 0 0 0.01 
97 1 10 0.0526392 0.204817 0.186574 0 0 -1.49045 0 0 0 0 0 0 0.01 
98 1 10 0.0526392 0.204817 0.195574 0 0 -1.49045 0 0 0 0 0 0 0.01 
99 1 10 0.0526392 0.204817 0.204574 0 0 -1.49045 0 0 0 0 0 0 0.01 
100 1 10 0.0526392 0.204817 0.213574 0 0 -1.49045 0 0 0 0 0 0 0.01 
101 1 11 -0.191384 -0.0894902 0.184884 0 0 -1.49045 0 0 0 0 0 0 0.01 
102 1 11 -0.191384 -0.0894902 0.193884 0 0 -1.49045 0 0 0 0 0 0 0.01 
103 1 11 -0.191384 -0.0894902 0.202884 0 0 -1.49045 0 0 0 0 0 0 0.01 
104 1 11 -0.191384 -0.0894902 0.211884 0 0 -1.49045 0 0 0 0 0 0 0.01 
105 1 11 -0.191384 -0.0894902 0.220884 0 0 -1.49045 0 0 0 0 0 0 0.01 
106 1 11 -0.191384 -0.0894902 0.229884 0 0 -1.49045 0 0 0 0 0 0 0.01 
107 1 11 -0.191384 -0.0894902 0.238884 0 0 -1.49045 0 0 0 0 0 0 0.01 
108 1 11 -0.191384 -0.0894902 0.247884 0 0 -1.49045 0 0 0 0 0 0 0.01 
109 1 11 -0.191384 -0.0894902 0.256884 0 0 -1.49045 0 0 0 0 0 0 0.01 
110 1 11 -0.191384 -0.0894902 0.265884 0 0 -1.49045 0 0 0 0 0 0 0.01 
111 1 12 0.0959754 0.0567813 0.116016 0 0 -1.49045 0 0 0 0 0 0 0.01 
112 1 12 0.0959754 0.0567813 0.125016 0 0 -1.49045 0 0 0 0 0 0 0.01 
113 1 12 0.0959754 0.0567813 0.134016 0 0 -1.49045 0 0 0 0 0 0 0.01 
114 1 12 0.0959754 0.0567813 0.143016 0 0 -1.49045 0 0 0 0 0 0 0.01 
115 1 12 0.0959754 0.0567813 0.152016 0 0 -1.49045 0 0 0 0 0 0 0.01 
116 1 12 0.0959754 0.0567813 0.161016 0 0 -1.49045 0 0 0 0 0 0 0.01 
117 1 12 0.0959754 0.0567813 0.170016 0 0 -1.49045 0 0 0 0 0 0 0.01 
118 1 12 0.0959754 0.0567813 0.179016 0 0 -1.49045 0 0 0 0 0 0 0.01 
119 1 12 0.0959754 0.0567813 0.188016 0 0 -1.49045 0 0 0 0 0 0 0.01 
120 1 12 0.0959754 0.0567813 0.197016 0 0 -1.49045 0 0 0 0 0 0 0.01 
121 1 13 -0.0168848 0.215837 0.269254 0 0 -1.49045 0 0 0 0 0 0 0.01 
122 1 13 -0.0168848 0.215837 0.278254 0 0 -1.49045 0 0 0 0 0 0 0.01 
123 1 13 -0.0168848 0.215837 0.287254 0 0 -1.49045 0 0 0 0 0 0 0.01 
124 1 13 -0.0168848 0.215837 0.296254 0 0 -1.49045 0 0 0 0 0 0 0.01 
125 1 13 -0.0168848 0.215837 0.305254 0 0 -1.49045 0 0 0 0 0 0 0.01 
126 1 13 -0.0168848 0.215837 0.314254 0 0 -1.49045 0 0 0 0 0 0 0.01 
127 1 13 -0.0168848 0.215837 0.323254 0 0 -1.49045 0 0 0 0 0 0 0.01 
128 1 13 -0.0168848 0.215837 0.332254 0 0 -1.49045 0 0 0 0 0 0 0.01 
129 1 13 -0.0168848 0.215837 0.341254 0 0 -1.49045 0 0 0 0 0 0 0.01 
130 1 13 -0.0168848 0.215837 0.350254 0 0 -1.49045 0 0 0 0 0 0 0.01 
131 1 14 -0.0494958 0.122461 0.0404047 0 0 -1.49045 0 0 0 0 0 0 0.01 
132 1 14 -0.0494958 0.122461 0.0494047 0 0 -1.49045 0 0 0 0 0 0 0.01 
133 1 14 -0.0494958 0.122461 0.0584047 0 0 -1.49045 0 0 0 0 0 0 0.01 
134 1 14 -0.0494958 0.122461 0.0674047 0 0 -1.49045 0 0 0 0 0 0 0.01 
135 1 14 -0.0494958 0.122461 0.0764047 0 0 -1.49045 0 0 0 0 0 0 0.01 
136 1 14 -0.0494958 0.122461 0.0854047 0 0 -1.49045 0 0 0 0 0 0 0.01 
137 1 14 -0.0494958 0.122461 0.0944047 0 0 -1.49045 0 0 0 0 0 0 0.01 
138 1 14 -0.0494958 0.122461 0.103405 0 0 -1.49045 0 0 0 0 0 0 0.01 
139 1 14 -0.0494958 0.122461 0.112405 0 0 -1.49045 0 0 0 0 0 0 0.01 
140 1 14 -0.0494958 0.122461 0.121405 0 0 -1.49045 0 0 0 0 0 0 0.01 
141 1 15 -0.0104758 -0.0692281 0.211613 0 0 -1.49045 0 0 0 0 0 0 0.01 
142 1 15 -0.0104758 -0.0692281 0.220613 0 0 -1.49045 0 0 0 0 0 0 0.01 
143 1 15 -0.0104758 -0.0692281 0.229613 0 0 -1.49045 0 0 0 0 0 0 0.01 
144 1 15 -0.0104758 -0.0692281 0.238613 0 0 -1.49045 0 0 0 0 0 0 0.01 
145 1 15 -0.0104758 -0.0692281 0.247613 0 0 -1.49045 0 0 0 0 0 0 0.01 
146 1 15 -0.0104758 -0.0692281 0.256613 0 0 -1.49045 0 0 0 0 0 0 0.01 
147 1 15 -0.0104758 -0.0692281 0.265613 0 0 -1.49045 0 0 0 0 0 0 0.01 
148 1 15 -0.0104758 -0.0692281 0.274613 0 0 -1.49045 0 0 0 0 0 0 0.01 
149 1 15 -0.0104758 -0.0692281 0.283613 0 0 -1.49045 0 0 0 0 0 0 0.01 
150 1 15 -0.0104758 -0.0692281 0.292613 0 0 -1.49045 0 0 0 0 0 0 0.01 
151 1 16 -0.0407462 0.176734 0.145096 0 0 -1.49045 0 0 0 0 0 0 0.01 
152 1 16 -0.0407462 0.176734 0.154096 0 0 -1.49045 0 0 0 0 0 0 0.01 
153 1 16 -0.0407462 0.176734 0.163096 0 0 -1.49045 0 0 0 0 0 0 0.01 
154 1 16 -0.0407462 0.176734 0.172096 0 0 -1.49045 0 0 0 0 0 0 0.01 
155 1 16 -0.0407462 0.176734 0.181096 0 0 -1.49045 0 0 0 0 0 0 0.01 
156 1 16 -0.0407462 0.176734 0.190096 0 0 -1.49045 0 0 0 0 0 0 0.01 
157 1 16 -0.0407462 0.176734 0.199096 0 0 -1.49045 0 0 0 0 0 0 0.01 
158 1 16 -0.0407462 0.176734 0.208096 0 0 -1.49045 0 0 0 0 0 0 0.01 
159 1 16 -0.0407462 0.176734 0.217096 0 0 -1.49045 0 0 0 0 0 0 0.01 
160 1 16 -0.0407462 0.176734 0.226096 0 0 -1.49045 0 0 0 0 0 0 0.01 
161 1 17 0.0731894 0.0923845 0.0452874 0 0 -1.49045 0 0 0 0 0 0 0.01 
162 1 17 0.0731894 0.0923845 0.0542874 0 0 -1.49045 0 0 0 0 0 0 0.01 
163 1 17 0.0731894 0.0923845 0.0632874 0 0 -1.49045 0 0 0 0 0 0 0.01 
164 1 17 0.0731894 0.0923845 0.0722874 0 0 -1.49045 0 0 0 0 0 0 0.01 
165 1 17 0.0731894 0.0923845 0.0812874 0 0 -1.49045 0 0 0 0 0 0 0.01 
166 1 17 0.0731894 0.0923845 0.0902874 0 0 -1.49045 0 0 0 0 0 0 0.01 
167 1 17 0.0731894 0.0923845 0.0992874 0 0 -1.49045 0 0 0 0 0 0 0.01 
168 1 17 0.0731894 0.0923845 0.108287 0 0 -1.49045 0 0 0 0 0 0 0.01 
169 1 17 0.0731894 0.0923845 0.117287 0 0 -1.49045 0 0 0 0 0 0 0.01 
170 1 17 0.0731894 0.0923845 0.126287 0 0 -1.49045 0 0 0 0 0 0 0.01 
171 1 18 -0.23779 -0.0339416 0.247756 0 0 -1.49045 0 0 0 0 0 0 0.01 
172 1 18 -0.23779 -0.0339416 0.256756 0 0 -1.49045 0 0 0 0 0 0 0.01 
173 1 18 -0.23779 -0.0339416 0.265756 0 0 -1.49045 0 0 0 0 0 0 0.01 
174 1 18 -0.23779 -0.0339416 0.274756 0 0 -1.49045 0 0 0 0 0 0 0.01 
175 1 18 -0.23779 -0.0339416 0.283756 0 0 -1.49045 0 0 0 0 0 0 0.01 
176 1 18 -0.23779 -0.0339416 0.292756 0 0 -1.49045 0 0 0 0 0 0 0.01 
177 1 18 -0.23779 -0.0339416 0.301756 0 0 -1.49045 0 0 0 0 0 0 0.01 
178 1 18 -0.23779 -0.0339416 0.310756 0 0 -1.49045 0 0 0 0 0 0 0.01 
179 1 18 -0.23779 -0.0339416 0.319756 0 0 -1.49045 0 0 0 0 0 0 0.01 
180 1 18 -0.23779 -0.0339416 0.328756 0 0 -1.49045 0 0 0 0 0 0 0.01 
181 1 19 0.00334189 0.165527 0.225006 0 0 -1.49045 0 0 0 0 0 0 0.01 
182 1 19 0.00334189 0.165527 0.234006 0 0 -1.49045 0 0 0 0 0 0 0.01 
183 1 19 0.00334189 0.165527 0.243006 0 0 -1.49045 0 0 0 0 0 0 0.01 
184 1 19 0.00334189 0.165527 0.252006 0 0 -1.49045 0 0 0 0 0 0 0.01 
185 1 19 0.00334189 0.165527 0.261006 0 0 -1.49045 0 0 0 0 0 0 0.01 
186 1 19 0.00334189 0.165527 0.270006 0 0 -1.49045 0 0 0 0 0 0 0.01 
187 1 19 0.00334189 0.165527 0.279006 0 0 -1.49045 0 0 0 0 0 0 0.01 
188 1 19 0.00334189 0.165527 0.288006 0 0 -1.49045 0 0 0 0 0 0 0.01 
189 1 19 0.00334189 0.165527 0.297006 0 0 -1.49045 0 0 0 0 0 0 0.01 
190 1 19 0.00334189 0.165527 0.306006 0 0 -1.49045 0 0 0 0 0 0 0.01 
191 1 20 -0.00784267 0.186597 0.00992628 -1.40891e-06 0.000103818 0.430721 1.57469e-05 -0.00116035 -7.19544 -0.00333057 -4.51992e-05 -2.32111e-06 0.01 
192 1 20 -0.00784267 0.186597 0.0189263 -1.8157e-06 0.000133793 0.430721 0 0 0 -0.00333057 -4.51992e-05 -2.32111e-06 0.01 
193 1 20 -0.00784267 0.186597 0.0279263 -2.22249e-06 0.000163769 0.430721 0 0 0 -0.00333057 -4.51992e-05 -2.32111e-06 0.01 
194 1 20 -0.00784268 0.186598 0.0369263 -2.62929e-06 0.000193744 0.430721 0 0 0 -0.00333057 -4.51992e-05 -2.32111e-06 0.01 
195 1 20 -0.00784268 0.186598 0.0459263 -3.03608e-06 0.000223719 0.430721 0 0 0 -0.00333057 -4.51992e-05 -2.32111e-06 0.01 
196 1 20 -0.00784268 0.186598 0.0549263 -3.44287e-06 0.000253694 0.430721 0 0 0 -0.00333057 -4.51992e-05 -2.32111e-06 0.01 
197 1 20 -0.00784268 0.186598 0.0639263 -3.84966e-06 0.000283669 0.430721 0 0 0 -0.00333057 -4.51992e-05 -2.32111e-06 0.01 
198 1 20 -0.00784268 0.186598 0.0729263 -4.25645e-06 0.000313644 0.430721 0 0 0 -0.00333057 -4.51992e-05 -2.32111e-06 0.01 
199 1 20 -0.00784269 0.186598 0.0819263 -4.66325e-06 0.000343619 0.430721 0 0 0 -0.00333057 -4.51992e-05 -2.32111e-06 0.01 
200 1 20 -0.00784269 0.186598 0.0909263 -5.07004e-06 0.000373595 0.430721 0 0 0 -0.00333057 -4.51992e-05 -2.32111e-06 0.01 
201 1 21 0.019526 0.0037094 0.00950895 -0.0329006 0.0205534 -0.0644071 1.33561 -0.834639 10.8613 0.300139 0.481822 -0.00784194 0.01 
202 1 21 0.0195286 0.0037079 0.018509 -0.0285642 0.0178521 -0.0644088 0 0 0 0.300139 0.481822 -0.00784194 0.01 
203 1 21 0.0195312 0.00370641 0.027509 -0.0242278 0.0151509 -0.0644105 0 0 0 0.300139 0.481822 -0.00784194 0.01 
204 1 21 0.0195338 0.00370492 0.036509 -0.0198914 0.0124496 -0.0644122 0 0 0 0.300139 0.481822 -0.00784194 0.01 
205 1 21 0.0195364 0.00370343 0.045509 -0.0155551 0.0097483 -0.0644139 0 0 0 0.300139 0.481822 -0.00784194 0.01 
206 1 21 0.019539 0.00370194 0.054509 -0.0112187 0.00704702 -0.0644156 0 0 0 0.300139 0.481822 -0.00784194 0.01 
207 1 21 0.0195416 0.00370044 0.063509 -0.00688227 0.00434575 -0.0644173 0 0 0 0.300139 0.481822 -0.00784194 0.01 
208 1 21 0.0195442 0.00369895 0.072509 -0.00254588 0.00164447 -0.064419 0 0 0 0.300139 0.481822 -0.00784194 0.01 
209 1 21 0.0195468 0.00369746 0.081509 0.00179051 -0.0010568 -0.0644207 0 0 0 0.300139 0.481822 -0.00784194 0.01 
210 1 21 0.0195493 0.00369597 0.0905089 0.0061269 -0.00375808 -0.0644224 -1.86934 1.15375 -52.9214 0.300139 0.481822 -0.00784194 0.01 
211 1 22 0.00289755 0.197355 0.185013 0 0 -1.49045 0 0 0 0 0 0 0.01 
212 1 22 0.00289755 0.197355 0.194013 0 0 -1.49045 0 0 0 0 0 0 0.01 
213 1 22 0.00289755 0.197355 0.203013 0 0 -1.49045 0 0 0 0 0 0 0.01 
214 1 22 0.00289755 0.197355 0.212013 0 0 -1.49045 0 0 0 0 0 0 0.01 
215 1 22 0.00289755 0.197355 0.221013 0 0 -1.49045 0 0 0 0 0 0 0.01 
216 1 22 0.00289755 0.197355 0.230013 0 0 -1.49045 0 0 0 0 0 0 0.01 
217 1 22 0.00289755 0.197355 0.239013 0 0 -1.49045 0 0 0 0 0 0 0.01 
218 1 22 0.00289755 0.197355 0.248013 0 0 -1.49045 0 0 0 0 0 0 0.01 
219 1 22 0.00289755 0.197355 0.257013 0 0 -1.49045 0 0 0 0 0 0 0.01 
220 1 22 0.00289755 0.197355 0.266013 0 0 -1.49045 0 0 0 0 0 0 0.01 
221 1 23 0.214349 0.0539113 0.274545 0 0 -1.49045 0 0 0 0 0 0 0.01 
222 1 23 0.214349 0.0539113 0.283545 0 0 -1.49045 0 0 0 0 0 0 0.01 
223 1 23 0.214349 0.0539113 0.292545 0 0 -1.49045 0 0 0 0 0 0 0.01 
224 1 23 0.214349 0.0539113 0.301545 0 0 -1.49045 0 0 0 0 0 0 0.01 
225 1 23 0.214349 0.0539113 0.310545 0 0 -1.49045 0 0 0 0 0 0 0.01 
226 1 23 0.214349 0.0539113 0.319545 0 0 -1.49045 0 0 0 0 0 0 0.01 
227 1 23 0.214349 0.0539113 0.328545 0 0 -1.49045 0 0 0 0 0 0 0.01 
228 1 23 0.214349 0.0539113 0.337545 0 0 -1.49045 0 0 0 0 0 0 0.01 
229 1 23 0.214349 0.0539113 0.346545 0 0 -1.49045 0 0 0 0 0 0 0.01 
230 1 23 0.214349 0.0539113 0.355545 0 0 -1.49045 0 0 0 0 0 0 0.01 
231 1 24 0.157258 0.0254774 0.040999 0 0 -1.49045 0 0 0 0 0 0 0.01 
232 1 24 0.157258 0.0254774 0.049999 0 0 -1.49045 0 0 0 0 0 0 0.01 
233 1 24 0.157258 0.0254774 0.058999 0 0 -1.49045 0 0 0 0 0 0 0.01 
234 1 24 0.157258 0.0254774 0.067999 0 0 -1.49045 0 0 0 0 0 0 0.01 
235 1 24 0.157258 0.0254774 0.076999 0 0 -1.49045 0 0 0 0 0 0 0.01 
236 1 24 0.157258 0.0254774 0.085999 0 0 -1.49045 0 0 0 0 0 0 0.01 
237 1 24 0.157258 0.0254774 0.094999 0 0 -1.49045 0 0 0 0 0 0 0.01 
238 1 24 0.157258 0.0254774 0.103999 0 0 -1.49045 0 0 0 0 0 0 0.01 
239 1 24 0.157258 0.0254774 0.112999 0 0 -1.49045 0 0 0 0 0 0 0.01 
240 1 24 0.157258 0.0254774 0.121999 0 0 -1.49045 0 0 0 0 0 0 0.01 
241 1 25 0.134963 -0.174125 0.212369 0 0 -1.49045 0 0 0 0 0 0 0.01 
242 1 25 0.134963 -0.174125 0.221369 0 0 -1.49045 0 0 0 0 0 0 0.01 
243 1 25 0.134963 -0.174125 0.230369 0 0 -1.49045 0 0 0 0 0 0 0.01 
244 1 25 0.134963 -0.174125 0.239369 0 0 -1.49045 0 0 0 0 0 0 0.01 
245 1 25 0.134963 -0.174125 0.248369 0 0 -1.49045 0 0 0 0 0 0 0.01 
246 1 25 0.134963 -0.174125 0.257369 0 0 -1.49045 0 0 0 0 0 0 0.01 
247 1 25 0.134963 -0.174125 0.266369 0 0 -1.49045 0 0 0 0 0 0 0.01 
248 1 25 0.134963 -0.174125 0.275369 0 0 -1.49045 0 0 0 0 0 0 0.01 
249 1 25 0.134963 -0.174125 0.284369 0 0 -1.49045 0 0 0 0 0 0 0.01 
250 1 25 0.134963 -0.174125 0.293369 0 0 -1.49045 0 0 0 0 0 0 0.01 
251 1 26 -0.00920263 -0.17024 0.0860416 0 0 -1.49045 0 0 0 0 0 0 0.01 
252 1 26 -0.00920263 -0.17024 0.0950416 0 0 -1.49045 0 0 0 0 0 0 0.01 
253 1 26 -0.00920263 -0.17024 0.104042 0 0 -1.49045 0 0 0 0 0 0 0.01 
254 1 26 -0.00920263 -0.17024 0.113042 0 0 -1.49045 0 0 0 0 0 0 0.01 
255 1 26 -0.00920263 -0.17024 0.122042 0 0 -1.49045 0 0 0 0 0 0 0.01 
256 1 26 -0.00920263 -0.17024 0.131042 0 0 -1.49045 0 0 0 0 0 0 0.01 
257 1 26 -0.00920263 -0.17024 0.140042 0 0 -1.49045 0 0 0 0 0 0 0.01 
258 1 26 -0.00920263 -0.17024 0.149042 0 0 -1.49045 0 0 0 0 0 0 0.01 
259 1 26 -0.00920263 -0.17024 0.158042 0 0 -1.49045 0 0 0 0 0 0 0.01 
260 1 26 -0.00920263 -0.17024 0.167042 0 0 -1.49045 0 0 0 0 0 0 0.01 
261 1 27 -0.145674 0.150591 0.209559 0 0 -1.49045 0 0 0 0 0 0 0.01 
262 1 27 -0.145674 0.150591 0.218559 0 0 -1.49045 0 0 0 0 0 0 0.01 
263 1 27 -0.145674 0.150591 0.227559 0 0 -1.49045 0 0 0 0 0 0 0.01 
264 1 27 -0.145674 0.150591 0.236559 0 0 -1.49045 0 0 0 0 0 0 0.01 
265 1 27 -0.145674 0.150591 0.245559 0 0 -1.49045 0 0 0 0 0 0 0.01 
266 1 27 -0.145674 0.150591 0.254559 0 0 -1.49045 0 0 0 0 0 0 0.01 
267 1 27 -0.145674 0.150591 0.263559 0 0 -1.49045 0 0 0 0 0 0 0.01 
268 1 27 -0.145674 0.150591 0.272559 0 0 -1.49045 0 0 0 0 0 0 0.01 
269 1 27 -0.145674 0.150591 0.281559 0 0 -1.49045 0 0 0 0 0 0 0.01 
270 1 27 -0.145674 0.150591 0.290559 0 0 -1.49045 0 0 0 0 0 0 0.01 
271 1 28 0.0144186 -0.169101 0.170122 0 0 -1.49045 0 0 0 0 0 0 0.01 
272 1 28 0.0144186 -0.169101 0.179122 0 0 -1.49045 0 0 0 0 0 0 0.01 
273 1 28 0.0144186 -0.169101 0.188122 0 0 -1.49045 0 0 0 0 0 0 0.01 
274 1 28 0.0144186 -0.169101 0.197122 0 0 -1.49045 0 0 0 0 0 0 0.01 
275 1 28 0.0144186 -0.169101 0.206122 0 0 -1.49045 0 0 0 0 0 0 0.01 
276 1 28 0.0144186 -0.169101 0.215122 0 0 -1.49045 0 0 0 0 0 0 0.01 
277 1 28 0.0144186 -0.169101 0.224122 0 0 -1.49045 0 0 0 0 0 0 0.01 
278 1 28 0.0144186 -0.169101 0.233122 0 0 -1.49045 0 0 0 0 0 0 0.01 
279 1 28 0.0144186 -0.169101 0.242122 0 0 -1.49045 0 0 0 0 0 0 0.01 
280 1 28 0.0144186 -0.169101 0.251122 0 0 -1.49045 0 0 0 0 0 0 0.01 
281 1 29 0.0770886 0.126327 0.0287827 0 0 -1.49045 0 0 0 0 0 0 0.01 
282 1 29 0.0770886 0.126327 0.0377827 0 0 -1.49045 0 0 0 0 0 0 0.01 
283 1 29 0.0770886 0.126327 0.0467827 0 0 -1.49045 0 0 0 0 0 0 0.01 
284 1 29 0.0770886 0.126327 0.0557827 0 0 -1.49045 0 0 0 0 0 0 0.01 
285 1 29 0.0770886 0.126327 0.0647827 0 0 -1.49045 0 0 0 0 0 0 0.01 
286 1 29 0.0770886 0.126327 0.0737827 0 0 -1.49045 0 0 0 0 0 0 0.01 
287 1 29 0.0770886 0.126327 0.0827827 0 0 -1.49045 0 0 0 0 0 0 0.01 
288 1 29 0.0770886 0.126327 0.0917827 0 0 -1.49045 0 0 0 0 0 0 0.01 
289 1 29 0.0770886 0.126327 0.100783 0 0 -1.49045 0 0 0 0 0 0 0.01 
290 1 29 0.0770886 0.126327 0.109783 0 0 -1.49045 0 0 0 0 0 0 0.01 
291 1 30 -0.0622987 -0.0566083 0.272202 0 0 -1.49045 0 0 0 0 0 0 0.01 
292 1 30 -0.0622987 -0.0566083 0.281202 0 0 -1.49045 0 0 0 0 0 0 0.01 
293 1 30 -0.0622987 -0.0566083 0.290202 0 0 -1.49045 0 0 0 0 0 0 0.01 
294 1 30 -0.0622987 -0.0566083 0.299202 0 0 -1.49045 0 0 0 0 0 0 0.01 
295 1 30 -0.0622987 -0.0566083 0.308202 0 0 -1.49045 0 0 0 0 0 0 0.01 
296 1 30 -0.0622987 -0.0566083 0.317202 0 0 -1.49045 0 0 0 0 0 0 0.01 
297 1 30 -0.0622987 -0.0566083 0.326202 0 0 -1.49045 0 0 0 0 0 0 0.01 
298 1 30 -0.0622987 -0.0566083 0.335202 0 0 -1.49045 0 0 0 0 0 0 0.01 
299 1 30 -0.0622987 -0.0566083 0.344202 0 0 -1.49045 0 0 0 0 0 0 0.01 
300 1 30 -0.0622987 -0.0566083 0.353202 0 0 -1.49045 0 0 0 0 0 0 0.01 
301 1 31 0.0111005 0.0641788 0.0142386 0 0 -1.49045 0 0 0 0 0 0 0.01 
302 1 31 0.0111005 0.0641788 0.0232386 0 0 -1.49045 0 0 0 0 0 0 0.01 
303 1 31 0.0111005 0.0641788 0.0322386 0 0 -1.49045 0 0 0 0 0 0 0.01 
304 1 31 0.0111005 0.0641788 0.0412386 0 0 -1.49045 0 0 0 0 0 0 0.01 
305 1 31 0.0111005 0.0641788 0.0502386 0 0 -1.49045 0 0 0 0 0 0 0.01 
306 1 31 0.0111005 0.0641788 0.0592386 0 0 -1.49045 0 0 0 0 0 0 0.01 
307 1 31 0.0111005 0.0641788 0.0682386 0 0 -1.49045 0 0 0 0 0 0 0.01 
308 1 31 0.0111005 0.0641788 0.0772386 0 0 -1.49045 0 0 0 0 0 0 0.01 
309 1 31 0.0111005 0.0641788 0.0862386 0 0 -1.49045 0 0 0 0 0 0 0.01 
310 1 31 0.0111005 0.0641788 0.0952386 0 0 -1.49045 0 0 0 0 0 0 0.01 
311 1 32 0.0320384 -0.0315173 0.0954477 0 0 -1.49045 0 0 0 0 0 0 0.01 
312 1 32 0.0320384 -0.0315173 0.104448 0 0 -1.49045 0 0 0 0 0 0 0.01 
313 1 32 0.0320384 -0.0315173 0.113448 0 0 -1.49045 0 0 0 0 0 0 0.01 
314 1 32 0.0320384 -0.0315173 0.122448 0 0 -1.49045 0 0 0 0 0 0 0.01 
315 1 32 0.0320384 -0.0315173 0.131448 0 0 -1.49045 0 0 0 0 0 0 0.01 
316 1 32 0.0320384 -0.0315173 0.140448 0 0 -1.49045 0 0 0 0 0 0 0.01 
317 1 32 0.0320384 -0.0315173 0.149448 0 0 -1.49045 0 0 0 0 0 0 0.01 
318 1 32 0.0320384 -0.0315173 0.158448 0 0 -1.49045 0 0 0 0 0 0 0.01 
319 1 32 0.0320384 -0.0315173 0.167448 0 0 -1.49045 0 0 0 0 0 0 0.01 
320 1 32 0.0320384 -0.0315173 0.176448 0 0 -1.49045 0 0 0 0 0 0 0.01 
321 1 33 -0.164367 -0.0225208 0.217704 0 0 -1.49045 0 0 0 0 0 0 0.01 
322 1 33 -0.164367 -0.0225208 0.226704 0 0 -1.49045 0 0 0 0 0 0 0.01 
323 1 33 -0.164367 -0.0225208 0.235704 0 0 -1.49045 0 0 0 0 0 0 0.01 
324 1 33 -0.164367 -0.0225208 0.244704 0 0 -1.49045 0 0 0 0 0 0 0.01 
325 1 33 -0.164367 -0.0225208 0.253704 0 0 -1.49045 0 0 0 0 0 0 0.01 
326 1 33 -0.164367 -0.0225208 0.262704 0 0 -1.49045 0 0 0 0 0 0 0.01 
327 1 33 -0.164367 -0.0225208 0.271704 0 0 -1.49045 0 0 0 0 0 0 0.01 
328 1 33 -0.164367 -0.0225208 0.280704 0 0 -1.49045 0 0 0 0 0 0 0.01 
329 1 33 -0.164367 -0.0225208 0.289704 0 0 -1.49045 0 0 0 0 0 0 0.01 
330 1 33 -0.164367 -0.0225208 0.298704 0 0 -1.49045 0 0 0 0 0 0 0.01 
331 1 34 -0.0753724 0.213735 0.068308 0 0 -1.49045 0 0 0 0 0 0 0.01 
332 1 34 -0.0753724 0.213735 0.077308 0 0 -1.49045 0 0 0 0 0 0 0.01 
333 1 34 -0.0753724 0.213735 0.086308 0 0 -1.49045 0 0 0 0 0 0 0.01 
334 1 34 -0.0753724 0.213735 0.095308 0 0 -1.49045 0 0 0 0 0 0 0.01 
335 1 34 -0.0753724 0.213735 0.104308 0 0 -1.49045 0 0 0 0 0 0 0.01 
336 1 34 -0.0753724 0.213735 0.113308 0 0 -1.49045 0 0 0 0 0 0 0.01 
337 1 34 -0.0753724 0.213735 0.122308 0 0 -1.49045 0 0 0 0 0 0 0.01 
338 1 34 -0.0753724 0.213735 0.131308 0 0 -1.49045 0 0 0 0 0 0 0.01 
339 1 34 -0.0753724 0.213735 0.140308 0 0 -1.49045 0 0 0 0 0 0 0.01 
340 1 34 -0.0753724 0.213735 0.149308 0 0 -1.49045 0 0 0 0 0 0 0.01 
341 1 35 0.107324 -0.21107 0.248371 0 0 -1.49045 0 0 0 0 0 0 0.01 
342 1 35 0.107324 -0.21107 0.257371 0 0 -1.49045 0 0 0 0 0 0 0.01 
343 1 35 0.107324 -0.21107 0.266371 0 0 -1.49045 0 0 0 0 0 0 0.01 
344 1 35 0.107324 -0.21107 0.275371 0 0 -1.49045 0 0 0 0 0 0 0.01 
345 1 35 0.107324 -0.21107 0.284371 0 0 -1.49045 0 0 0 0 0 0 0.01 
346 1 35 0.107324 -0.21107 0.293371 0 0 -1.49045 0 0 0 0 0 0 0.01 
347 1 35 0.107324 -0.21107 0.302371 0 0 -1.49045 0 0 0 0 0 0 0.01 
348 1 35 0.107324 -0.21107 0.311371 0 0 -1.49045 0 0 0 0 0 0 0.01 
349 1 35 0.107324 -0.21107 0.320371 0 0 -1.49045 0 0 0 0 0 0 0.01 
350 1 35 0.107324 -0.21107 0.329371 0 0 -1.49045 0 0 0 0 0 0 0.01 
351 1 36 -0.0369915 -0.217979 0.18151 0 0 -1.49045 0 0 0 0 0 0 0.01 
352 1 36 -0.0369915 -0.217979 0.19051 0 0 -1.49045 0 0 0 0 0 0 0.01 
353 1 36 -0.0369915 -0.217979 0.19951 0 0 -1.49045 0 0 0 0 0 0 0.01 
354 1 36 -0.0369915 -0.217979 0.20851 0 0 -1.49045 0 0 0 0 0 0 0.01 
355 1 36 -0.0369915 -0.217979 0.21751 0 0 -1.49045 0 0 0 0 0 0 0.01 
356 1 36 -0.0369915 -0.217979 0.22651 0 0 -1.49045 0 0 0 0 0 0 0.01 
357 1 36 -0.0369915 -0.217979 0.23551 0 0 -1.49045 0 0 0 0 0 0 0.01 
358 1 36 -0.0369915 -0.217979 0.24451 0 0 -1.49045 0 0 0 0 0 0 0.01 
359 1 36 -0.0369915 -0.217979 0.25351 0 0 -1.49045 0 0 0 0 0 0 0.01 
360 1 36 -0.0369915 -0.217979 0.26251 0 0 -1.49045 0 0 0 0 0 0 0.01 
361 1 37 0.0719128 0.13673 0.231246 0 0 -1.49045 0 0 0 0 0 0 0.01 
362 1 37 0.0719128 0.13673 0.240246 0 0 -1.49045 0 0 0 0 0 0 0.01 
363 1 37 0.0719128 0.13673 0.249246 0 0 -1.49045 0 0 0 0 0 0 0.01 
364 1 37 0.0719128 0.13673 0.258246 0 0 -1.49045 0 0 0 0 0 0 0.01 
365 1 37 0.0719128 0.13673 0.267246 0 0 -1.49045 0 0 0 0 0 0 0.01 
366 1 37 0.0719128 0.13673 0.276246 0 0 -1.49045 0 0 0 0 0 0 0.01 
367 1 37 0.0719128 0.13673 0.285246 0 0 -1.49045 0 0 0 0 0 0 0.01 
368 1 37 0.0719128 0.13673 0.294246 0 0 -1.49045 0 0 0 0 0 0 0.01 
369 1 37 0.0719128 0.13673 0.303246 0 0 -1.49045 0 0 0 0 0 0 0.01 
370 1 37 0.0719128 0.13673 0.312246 0 0 -1.49045 0 0 0 0 0 0 0.01 
371 1 38 -0.156963 -0.0782603 0.0297933 0 0 -1.49045 0 0 0 0 0 0 0.01 
372 1 38 -0.156963 -0.0782603 0.0387933 0 0 -1.49045 0 0 0 0 0 0 0.01 
373 1 38 -0.156963 -0.0782603 0.0477933 0 0 -1.49045 0 0 0 0 0 0 0.01 
374 1 38 -0.156963 -0.0782603 0.0567933 0 0 -1.49045 0 0 0 0 0 0 0.01 
375 1 38 -0.156963 -0.0782603 0.0657933 0 0 -1.49045 0 0 0 0 0 0 0.01 
376 1 38 -0.156963 -0.0782603 0.0747933 0 0 -1.49045 0 0 0 0 0 0 0.01 
377 1 38 -0.156963 -0.0782603 0.0837933 0 0 -1.49045 0 0 0 0 0 0 0.01 
378 1 38 -0.156963 -0.0782603 0.0927933 0 0 -1.49045 0 0 0 0 0 0 0.01 
379 1 38 -0.156963 -0.0782603 0.101793 0 0 -1.49045 0 0 0 0 0 0 0.01 
380 1 38 -0.156963 -0.0782603 0.110793 0 0 -1.49045 0 0 0 0 0 0 0.01 
381 1 39 -0.132731 0.194202 0.190307 0 0 -1.49045 0 0 0 0 0 0 0.01 
382 1 39 -0.132731 0.194202 0.199307 0 0 -1.49045 0 0 0 0 0 0 0.01 
383 1 39 -0.132731 0.194202 0.208307 0 0 -1.49045 0 0 0 0 0 0 0.01 
384 1 39 -0.132731 0.194202 0.217307 0 0 -1.49045 0 0 0 0 0 0 0.01 
385 1 39 -0.132731 0.194202 0.226307 0 0 -1.49045 0 0 0 0 0 0 0.01 
386 1 39 -0.132731 0.194202 0.235307 0 0 -1.49045 0 0 0 0 0 0 0.01 
387 1 39 -0.132731 0.194202 0.244307 0 0 -1.49045 0 0 0 0 0 0 0.01 
388 1 39 -0.132731 0.194202 0.253307 0 0 -1.49045 0 0 0 0 0 0 0.01 
389 1 39 -0.132731 0.194202 0.262307 0 0 -1.49045 0 0 0 0 0 0 0.01 
390 1 39 -0.132731 0.194202 0.271307 0 0 -1.49045 0 0 0 0 0 0 0.01 
391 1 40 0.0157305 -0.119676 0.28951 0 0 -1.49045 0 0 0 0 0 0 0.01 
392 1 40 0.0157305 -0.119676 0.29851 0 0 -1.49045 0 0 0 0 0 0 0.01 
393 1 40 0.0157305 -0.119676 0.30751 0 0 -1.49045 0 0 0 0 0 0 0.01 
394 1 40 0.0157305 -0.119676 0.31651 0 0 -1.49045 0 0 0 0 0 0 0.01 
395 1 40 0.0157305 -0.119676 0.32551 0 0 -1.49045 0 0 0 0 0 0 0.01 
396 1 40 0.0157305 -0.119676 0.33451 0 0 -1.49045 0 0 0 0 0 0 0.01 
397 1 40 0.0157305 -0.119676 0.34351 0 0 -1.49045 0 0 0 0 0 0 0.01 
398 1 40 0.0157305 -0.119676 0.35251 0 0 -1.49045 0 0 0 0 0 0 0.01 
399 1 40 0.0157305 -0.119676 0.36151 0 0 -1.49045 0 0 0 0 0 0 0.01 
400 1 40 0.0157305 -0.119676 0.37051 0 0 -1.49045 0 0 0 0 0 0 0.01 
401 1 41 -0.158558 0.109248 0.00972759 -1.53189e-06 0.000112881 0.48662 1.87039e-05 -0.00137824 -8.34145 -0.00332808 -4.51653e-05 -2.31937e-06 0.01 
402 1 41 -0.158558 0.109249 0.0187276 -1.93838e-06 0.000142833 0.48662 0 0 0 -0.00332808 -4.51653e-05 -2.31937e-06 0.01 
403 1 41 -0.158558 0.109249 0.0277276 -2.34487e-06 0.000172786 0.48662 0 0 0 -0.00332808 -4.51653e-05 -2.31937e-06 0.01 
404 1 41 -0.158558 0.109249 0.0367276 -2.75136e-06 0.000202739 0.48662 0 0 0 -0.00332808 -4.51653e-05 -2.31937e-06 0.01 
405 1 41 -0.158558 0.109249 0.0457276 -3.15785e-06 0.000232692 0.48662 0 0 0 -0.00332808 -4.51653e-05 -2.31937e-06 0.01 
406 1 41 -0.158558 0.109249 0.0547276 -3.56433e-06 0.000262644 0.48662 0 0 0 -0.00332808 -4.51653e-05 -2.31937e-06 0.01 
407 1 41 -0.158558 0.109249 0.0637276 -3.97082e-06 0.000292597 0.48662 0 0 0 -0.00332808 -4.51653e-05 -2.31937e-06 0.01 