ITEM: TIMESTEP
10000
ITEM: NUMBER OF ATOMS
6300
ITEM: BOX BOUNDS mm mm mm
-0.3 0.3
-0.3 0.3
0 0.5
ITEM: ATOMS id type mol x y z vx vy vz fx fy fz omegax omegay omegaz radius 
1 1 1 -0.115675 -0.128873 0.105471 -0.0525321 0.113858 0.0233999 -0.26095 0.777229 7.26596 -1.28122 -1.34943 1.55497 0.01 
2 1 1 -0.115721 -0.12881 0.114471 -0.0647743 0.125316 0.0232566 0 0 0 -1.28122 -1.34943 1.55497 0.01 
3 1 1 -0.115768 -0.128747 0.12347 -0.0770164 0.136775 0.0231134 0 0 0 -1.28122 -1.34943 1.55497 0.01 
4 1 1 -0.115814 -0.128685 0.13247 -0.0892585 0.148233 0.0229701 0 0 0 -1.28122 -1.34943 1.55497 0.01 
5 1 1 -0.115861 -0.128622 0.14147 -0.101501 0.159691 0.0228269 0 0 0 -1.28122 -1.34943 1.55497 0.01 
6 1 1 -0.115907 -0.128559 0.150469 -0.113743 0.17115 0.0226836 0 0 0 -1.28122 -1.34943 1.55497 0.01 
7 1 1 -0.115954 -0.128496 0.159469 -0.125985 0.182608 0.0225404 0 0 0 -1.28122 -1.34943 1.55497 0.01 
8 1 1 -0.116 -0.128433 0.168469 -0.138227 0.194066 0.0223972 0 0 0 -1.28122 -1.34943 1.55497 0.01 
9 1 1 -0.116047 -0.12837 0.177468 -0.150469 0.205524 0.0222539 0 0 0 -1.28122 -1.34943 1.55497 0.01 
10 1 1 -0.116093 -0.128307 0.186468 -0.162711 0.216983 0.0221107 0 0 0 -1.28122 -1.34943 1.55497 0.01 
11 1 2 -0.0433802 -0.104648 0.093876 0.150774 0.0442706 -0.781338 0.171957 -0.671589 0.295275 0.65158 0.445346 16.6655 0.01 
12 1 2 -0.0436068 -0.104245 0.102864 0.148062 0.0346384 -0.780974 0 0 0 0.65158 0.445346 16.6655 0.01 
13 1 2 -0.0438334 -0.103842 0.111852 0.145349 0.0250061 -0.780611 0 0 0 0.65158 0.445346 16.6655 0.01 
14 1 2 -0.0440599 -0.103439 0.12084 0.142637 0.0153739 -0.780247 0 0 0 0.65158 0.445346 16.6655 0.01 
15 1 2 -0.0442865 -0.103036 0.129828 0.139924 0.00574165 -0.779884 0 0 0 0.65158 0.445346 16.6655 0.01 
16 1 2 -0.044513 -0.102633 0.138817 0.137211 -0.00389059 -0.77952 0 0 0 0.65158 0.445346 16.6655 0.01 
17 1 2 -0.0447396 -0.10223 0.147805 0.134499 -0.0135228 -0.779157 0 0 0 0.65158 0.445346 16.6655 0.01 
18 1 2 -0.0449662 -0.101827 0.156793 0.131786 -0.0231551 -0.778794 0 0 0 0.65158 0.445346 16.6655 0.01 
19 1 2 -0.0451927 -0.101424 0.165781 0.129074 -0.0327873 -0.77843 0 0 0 0.65158 0.445346 16.6655 0.01 
20 1 2 -0.0454193 -0.101021 0.174769 0.126361 -0.0424196 -0.778067 0 0 0 0.65158 0.445346 16.6655 0.01 
21 1 3 -0.0396635 -0.0315352 0.0878405 0.121487 0.109813 -1.20232 0 0 0 3.94032 -3.05954 0.949894 0.01 
22 1 3 -0.0401831 -0.0314529 0.0968251 0.0939198 0.0739176 -1.20359 0 0 0 3.94032 -3.05954 0.949894 0.01 
23 1 3 -0.0407028 -0.0313707 0.10581 0.066353 0.0380218 -1.20485 0 0 0 3.94032 -3.05954 0.949894 0.01 
24 1 3 -0.0412224 -0.0312885 0.114794 0.0387862 0.0021259 -1.20612 0 0 0 3.94032 -3.05954 0.949894 0.01 
25 1 3 -0.0417421 -0.0312063 0.123779 0.0112193 -0.0337699 -1.20738 0 0 0 3.94032 -3.05954 0.949894 0.01 
26 1 3 -0.0422617 -0.0311241 0.132763 -0.0163475 -0.0696658 -1.20865 0 0 0 3.94032 -3.05954 0.949894 0.01 
27 1 3 -0.0427814 -0.0310419 0.141748 -0.0439144 -0.105562 -1.20992 0 0 0 3.94032 -3.05954 0.949894 0.01 
28 1 3 -0.043301 -0.0309596 0.150733 -0.0714812 -0.141458 -1.21118 0 0 0 3.94032 -3.05954 0.949894 0.01 
29 1 3 -0.0438207 -0.0308774 0.159717 -0.099048 -0.177353 -1.21245 0 0 0 3.94032 -3.05954 0.949894 0.01 
30 1 3 -0.0443404 -0.0307952 0.168702 -0.126615 -0.213249 -1.21371 -1.69802 -2.7171 2.14402 3.94032 -3.05954 0.949894 0.01 
31 1 4 -0.0929903 0.110329 0.0115094 0 0 -1.98095 0 0 0 0 0 0 0.01 
32 1 4 -0.0929903 0.110329 0.0205094 0 0 -1.98095 0 0 0 0 0 0 0.01 
33 1 4 -0.0929903 0.110329 0.0295094 0 0 -1.98095 0 0 0 0 0 0 0.01 
34 1 4 -0.0929903 0.110329 0.0385094 0 0 -1.98095 0 0 0 0 0 0 0.01 
35 1 4 -0.0929903 0.110329 0.0475094 0 0 -1.98095 0 0 0 0 0 0 0.01 
36 1 4 -0.0929903 0.110329 0.0565094 0 0 -1.98095 0 0 0 0 0 0 0.01 
37 1 4 -0.0929903 0.110329 0.0655094 0 0 -1.98095 0 0 0 0 0 0 0.01 
38 1 4 -0.0929903 0.110329 0.0745094 0 0 -1.98095 0 0 0 0 0 0 0.01 
39 1 4 -0.0929903 0.110329 0.0835094 0 0 -1.98095 0 0 0 0 0 0 0.01 
40 1 4 -0.0929903 0.110329 0.0925094 0 0 -1.98095 0 0 0 0 0 0 0.01 
41 1 5 0.0781378 -0.132619 0.0856726 -0.0544337 -0.124897 -1.22007 0 0 0 -2.57227 2.62947 0.554931 0.01 
42 1 5 0.0782103 -0.132061 0.094655 -0.031124 -0.101752 -1.22169 0 0 0 -2.57227 2.62947 0.554931 0.01 
43 1 5 0.0782828 -0.131504 0.103637 -0.0078143 -0.0786064 -1.22332 0 0 0 -2.57227 2.62947 0.554931 0.01 
44 1 5 0.0783553 -0.130947 0.11262 0.0154954 -0.055461 -1.22494 0.200949 0.142755 -0.282927 -2.57227 2.62947 0.554931 0.01 
45 1 5 0.0784279 -0.130389 0.121602 0.0388051 -0.0323155 -1.22657 0.190505 0.126792 -0.337685 -2.57227 2.62947 0.554931 0.01 
46 1 5 0.0785004 -0.129832 0.130585 0.0621148 -0.00917004 -1.22819 0.143808 0.0864458 -0.353605 -2.57227 2.62947 0.554931 0.01 
47 1 5 0.0785729 -0.129274 0.139567 0.0854245 0.0139754 -1.22982 0.00431701 0.0283058 -0.0130376 -2.57227 2.62947 0.554931 0.01 
48 1 5 0.0786454 -0.128717 0.14855 0.108734 0.0371209 -1.23144 -0.000113161 -0.0363889 -0.0192634 -2.57227 2.62947 0.554931 0.01 
49 1 5 0.0787179 -0.12816 0.157532 0.132044 0.0602664 -1.23306 -0.00369753 -0.107275 -0.0570761 -2.57227 2.62947 0.554931 0.01 
50 1 5 0.0787905 -0.127602 0.166514 0.155354 0.0834118 -1.23469 -0.0093488 -0.183611 -0.0978207 -2.57227 2.62947 0.554931 0.01 
51 1 6 0.173054 -0.0396535 0.0660224 0.0928535 0.206076 -1.70783 0 0 0 2.80529 -0.929524 -2.21653 0.01 
52 1 6 0.17282 -0.0402378 0.0750003 0.083213 0.181409 -1.70968 0 0 0 2.80529 -0.929524 -2.21653 0.01 
53 1 6 0.172585 -0.0408222 0.0839783 0.0735726 0.156742 -1.71154 0 0 0 2.80529 -0.929524 -2.21653 0.01 
54 1 6 0.172351 -0.0414065 0.0929562 0.0639321 0.132075 -1.7134 0 0 0 2.80529 -0.929524 -2.21653 0.01 
55 1 6 0.172117 -0.0419909 0.101934 0.0542917 0.107408 -1.71526 0 0 0 2.80529 -0.929524 -2.21653 0.01 
56 1 6 0.171883 -0.0425752 0.110912 0.0446512 0.0827411 -1.71711 0 0 0 2.80529 -0.929524 -2.21653 0.01 
57 1 6 0.171649 -0.0431595 0.11989 0.0350108 0.0580742 -1.71897 0 0 0 2.80529 -0.929524 -2.21653 0.01 
58 1 6 0.171415 -0.0437439 0.128868 0.0253704 0.0334073 -1.72083 0 0 0 2.80529 -0.929524 -2.21653 0.01 
59 1 6 0.171181 -0.0443282 0.137846 0.0157299 0.00874045 -1.72268 0 0 0 2.80529 -0.929524 -2.21653 0.01 
60 1 6 0.170947 -0.0449126 0.146824 0.00608947 -0.0159264 -1.72454 0 0 0 2.80529 -0.929524 -2.21653 0.01 
61 1 7 -0.0371413 0.216731 0.0673619 -0.0114728 0.0711111 -1.4512 0 0 0 0.911183 -1.00254 1.30137 0.01 
62 1 7 -0.0372035 0.216645 0.0763612 -0.0203838 0.0628301 -1.45134 0 0 0 0.911183 -1.00254 1.30137 0.01 
63 1 7 -0.0372658 0.21656 0.0853606 -0.0292947 0.054549 -1.45148 0 0 0 0.911183 -1.00254 1.30137 0.01 
64 1 7 -0.037328 0.216474 0.09436 -0.0382057 0.0462679 -1.45162 0 0 0 0.911183 -1.00254 1.30137 0.01 
65 1 7 -0.0373903 0.216388 0.103359 -0.0471166 0.0379868 -1.45176 0 0 0 0.911183 -1.00254 1.30137 0.01 
66 1 7 -0.0374525 0.216303 0.112359 -0.0560276 0.0297057 -1.4519 0 0 0 0.911183 -1.00254 1.30137 0.01 
67 1 7 -0.0375147 0.216217 0.121358 -0.0649385 0.0214246 -1.45204 0 0 0 0.911183 -1.00254 1.30137 0.01 
68 1 7 -0.037577 0.216132 0.130358 -0.0738495 0.0131435 -1.45218 0 0 0 0.911183 -1.00254 1.30137 0.01 
69 1 7 -0.0376392 0.216046 0.139357 -0.0827604 0.00486246 -1.45232 0 0 0 0.911183 -1.00254 1.30137 0.01 
70 1 7 -0.0377015 0.215961 0.148356 -0.0916714 -0.00341862 -1.45246 0 0 0 0.911183 -1.00254 1.30137 0.01 
71 1 8 0.122704 -0.136224 0.108191 -0.0200269 0.0698355 0.206693 0.394 -0.30915 2.31541 -1.20988 5.44076 -4.14212 0.01 
72 1 8 0.123159 -0.136272 0.117179 0.0286751 0.0788251 0.204275 0 0 0 -1.20988 5.44076 -4.14212 0.01 
73 1 8 0.123614 -0.136321 0.126167 0.0773771 0.0878147 0.201858 0 0 0 -1.20988 5.44076 -4.14212 0.01 
74 1 8 0.124069 -0.13637 0.135156 0.126079 0.0968044 0.199441 0 0 0 -1.20988 5.44076 -4.14212 0.01 
75 1 8 0.124524 -0.136418 0.144144 0.174781 0.105794 0.197023 0 0 0 -1.20988 5.44076 -4.14212 0.01 
76 1 8 0.124979 -0.136467 0.153132 0.223483 0.114784 0.194606 0 0 0 -1.20988 5.44076 -4.14212 0.01 
77 1 8 0.125434 -0.136515 0.162121 0.272185 0.123773 0.192189 0 0 0 -1.20988 5.44076 -4.14212 0.01 
78 1 8 0.125889 -0.136564 0.171109 0.320887 0.132763 0.189771 0 0 0 -1.20988 5.44076 -4.14212 0.01 
79 1 8 0.126345 -0.136613 0.180097 0.369589 0.141753 0.187354 0 0 0 -1.20988 5.44076 -4.14212 0.01 
80 1 8 0.1268 -0.136661 0.189086 0.418291 0.150742 0.184937 0 0 0 -1.20988 5.44076 -4.14212 0.01 
81 1 9 -0.103348 0.0216352 0.209319 0 0 -1.98095 0 0 0 0 0 0 0.01 
82 1 9 -0.103348 0.0216352 0.218319 0 0 -1.98095 0 0 0 0 0 0 0.01 
83 1 9 -0.103348 0.0216352 0.227319 0 0 -1.98095 0 0 0 0 0 0 0.01 
84 1 9 -0.103348 0.0216352 0.236319 0 0 -1.98095 0 0 0 0 0 0 0.01 
85 1 9 -0.103348 0.0216352 0.245319 0 0 -1.98095 0 0 0 0 0 0 0.01 
86 1 9 -0.103348 0.0216352 0.254319 0 0 -1.98095 0 0 0 0 0 0 0.01 
87 1 9 -0.103348 0.0216352 0.263319 0 0 -1.98095 0 0 0 0 0 0 0.01 
88 1 9 -0.103348 0.0216352 0.272319 0 0 -1.98095 0 0 0 0 0 0 0.01 
89 1 9 -0.103348 0.0216352 0.281319 0 0 -1.98095 0 0 0 0 0 0 0.01 
90 1 9 -0.103348 0.0216352 0.290319 0 0 -1.98095 0 0 0 0 0 0 0.01 
91 1 10 0.0539254 0.201754 0.10999 0.137402 -0.165945 0.233583 0 0 0 -1.53752 -1.37542 7.84108 0.01 
92 1 10 0.0535373 0.202468 0.118954 0.119475 -0.155207 0.231951 0 0 0 -1.53752 -1.37542 7.84108 0.01 
93 1 10 0.0531491 0.203182 0.127917 0.101548 -0.14447 0.230319 0 0 0 -1.53752 -1.37542 7.84108 0.01 
94 1 10 0.0527609 0.203896 0.13688 0.0836203 -0.133732 0.228688 0 0 0 -1.53752 -1.37542 7.84108 0.01 
95 1 10 0.0523727 0.20461 0.145843 0.065693 -0.122995 0.227056 0 0 0 -1.53752 -1.37542 7.84108 0.01 
96 1 10 0.0519845 0.205324 0.154806 0.0477657 -0.112257 0.225424 0 0 0 -1.53752 -1.37542 7.84108 0.01 
97 1 10 0.0515964 0.206038 0.16377 0.0298385 -0.10152 0.223792 0 0 0 -1.53752 -1.37542 7.84108 0.01 
98 1 10 0.0512082 0.206752 0.172733 0.0119112 -0.0907827 0.22216 0 0 0 -1.53752 -1.37542 7.84108 0.01 
99 1 10 0.05082 0.207466 0.181696 -0.00601607 -0.0800452 0.220529 0 0 0 -1.53752 -1.37542 7.84108 0.01 
100 1 10 0.0504318 0.20818 0.190659 -0.0239433 -0.0693078 0.218897 0 0 0 -1.53752 -1.37542 7.84108 0.01 
101 1 11 -0.191397 -0.0903735 0.10563 -0.00130048 -0.0873801 -0.626274 0 0 0 1.47201 -0.0223254 0.000694306 0.01 
102 1 11 -0.191397 -0.0903842 0.11463 -0.0015014 -0.100628 -0.626289 0 0 0 1.47201 -0.0223254 0.000694306 0.01 
103 1 11 -0.191397 -0.0903949 0.12363 -0.00170233 -0.113876 -0.626305 0 0 0 1.47201 -0.0223254 0.000694306 0.01 
104 1 11 -0.191398 -0.0904056 0.13263 -0.00190325 -0.127124 -0.626321 0 0 0 1.47201 -0.0223254 0.000694306 0.01 
105 1 11 -0.191398 -0.0904163 0.14163 -0.00210417 -0.140373 -0.626337 0 0 0 1.47201 -0.0223254 0.000694306 0.01 
106 1 11 -0.191398 -0.0904269 0.15063 -0.00230509 -0.153621 -0.626352 0 0 0 1.47201 -0.0223254 0.000694306 0.01 
107 1 11 -0.191398 -0.0904376 0.15963 -0.00250601 -0.166869 -0.626368 0 0 0 1.47201 -0.0223254 0.000694306 0.01 
108 1 11 -0.191398 -0.0904483 0.16863 -0.00270693 -0.180117 -0.626384 0 0 0 1.47201 -0.0223254 0.000694306 0.01 
109 1 11 -0.191398 -0.090459 0.17763 -0.00290785 -0.193365 -0.6264 0 0 0 1.47201 -0.0223254 0.000694306 0.01 
110 1 11 -0.191399 -0.0904697 0.18663 -0.00310877 -0.206613 -0.626415 0 0 0 1.47201 -0.0223254 0.000694306 0.01 
111 1 12 0.0994174 0.0517511 0.108173 0.187401 -0.529192 0.532631 1.51155 0.50923 12.6209 -10.1533 2.96267 14.7479 0.01 
112 1 12 0.0997382 0.0526242 0.117125 0.201047 -0.433571 0.522816 0.0912876 0.142853 0.0202426 -10.1533 2.96267 14.7479 0.01 
113 1 12 0.100059 0.0534973 0.126077 0.214692 -0.33795 0.513001 -0.978031 -0.0135318 -0.0189571 -10.1533 2.96267 14.7479 0.01 
114 1 12 0.10038 0.0543703 0.135028 0.228337 -0.242328 0.503186 -1.42691 0.63253 0.226156 -10.1533 2.96267 14.7479 0.01 
115 1 12 0.100701 0.0552434 0.14398 0.241983 -0.146707 0.493371 0 0 0 -10.1533 2.96267 14.7479 0.01 
116 1 12 0.101021 0.0561165 0.152932 0.255628 -0.0510858 0.483556 0 0 0 -10.1533 2.96267 14.7479 0.01 
117 1 12 0.101342 0.0569896 0.161884 0.269273 0.0445355 0.473741 0 0 0 -10.1533 2.96267 14.7479 0.01 
118 1 12 0.101663 0.0578626 0.170836 0.282919 0.140157 0.463926 0 0 0 -10.1533 2.96267 14.7479 0.01 
119 1 12 0.101984 0.0587357 0.179787 0.296564 0.235778 0.454111 0 0 0 -10.1533 2.96267 14.7479 0.01 
120 1 12 0.102304 0.0596088 0.188739 0.310209 0.331399 0.444296 0.227552 -0.783406 -9.40807 -10.1533 2.96267 14.7479 0.01 
121 1 13 -0.0168848 0.215837 0.182469 0 0 -1.98095 0 0 0 0 0 0 0.01 
122 1 13 -0.0168848 0.215837 0.191469 0 0 -1.98095 0 0 0 0 0 0 0.01 
123 1 13 -0.0168848 0.215837 0.200469 0 0 -1.98095 0 0 0 0 0 0 0.01 
124 1 13 -0.0168848 0.215837 0.209469 0 0 -1.98095 0 0 0 0 0 0 0.01 
125 1 13 -0.0168848 0.215837 0.218469 0 0 -1.98095 0 0 0 0 0 0 0.01 
126 1 13 -0.0168848 0.215837 0.227469 0 0 -1.98095 0 0 0 0 0 0 0.01 
127 1 13 -0.0168848 0.215837 0.236469 0 0 -1.98095 0 0 0 0 0 0 0.01 
128 1 13 -0.0168848 0.215837 0.245469 0 0 -1.98095 0 0 0 0 0 0 0.01 
129 1 13 -0.0168848 0.215837 0.254469 0 0 -1.98095 0 0 0 0 0 0 0.01 
130 1 13 -0.0168848 0.215837 0.263469 0 0 -1.98095 0 0 0 0 0 0 0.01 
131 1 14 -0.0486539 0.121451 0.0099697 0.062131 -0.037179 0.238924 -0.769635 0.707608 -3.29227 0.580446 2.4662 -7.69924 0.01 
132 1 14 -0.0484016 0.121414 0.0189661 0.0840344 -0.0443436 0.23828 0 0 0 0.580446 2.4662 -7.69924 0.01 
133 1 14 -0.0481492 0.121377 0.0279625 0.105938 -0.0515082 0.237636 0 0 0 0.580446 2.4662 -7.69924 0.01 
134 1 14 -0.0478969 0.121341 0.0369589 0.127841 -0.0586729 0.236993 0 0 0 0.580446 2.4662 -7.69924 0.01 
135 1 14 -0.0476446 0.121304 0.0459552 0.149744 -0.0658375 0.236349 0 0 0 0.580446 2.4662 -7.69924 0.01 
136 1 14 -0.0473923 0.121267 0.0549516 0.171648 -0.0730022 0.235705 0 0 0 0.580446 2.4662 -7.69924 0.01 
137 1 14 -0.0471399 0.12123 0.063948 0.193551 -0.0801668 0.235062 0 0 0 0.580446 2.4662 -7.69924 0.01 
138 1 14 -0.0468876 0.121193 0.0729444 0.215455 -0.0873315 0.234418 0 0 0 0.580446 2.4662 -7.69924 0.01 
139 1 14 -0.0466353 0.121156 0.0819408 0.237358 -0.0944961 0.233774 -0.265483 0.220771 -0.122128 0.580446 2.4662 -7.69924 0.01 
140 1 14 -0.046383 0.12112 0.0909372 0.259261 -0.101661 0.233131 -2.18095 1.77547 -0.990317 0.580446 2.4662 -7.69924 0.01 
141 1 15 -0.0104758 -0.0692281 0.124828 0 0 -1.98095 0 0 0 0 0 0 0.01 
142 1 15 -0.0104758 -0.0692281 0.133828 0 0 -1.98095 0 0 0 0 0 0 0.01 
143 1 15 -0.0104758 -0.0692281 0.142828 0 0 -1.98095 0 0 0 0 0 0 0.01 
144 1 15 -0.0104758 -0.0692281 0.151828 0 0 -1.98095 0 0 0 0 0 0 0.01 
145 1 15 -0.0104758 -0.0692281 0.160828 0 0 -1.98095 0 0 0 0 0 0 0.01 
146 1 15 -0.0104758 -0.0692281 0.169828 0 0 -1.98095 0 0 0 0 0 0 0.01 
147 1 15 -0.0104758 -0.0692281 0.178828 0 0 -1.98095 0 0 0 0 0 0 0.01 
148 1 15 -0.0104758 -0.0692281 0.187828 0 0 -1.98095 0 0 0 0 0 0 0.01 
149 1 15 -0.0104758 -0.0692281 0.196828 0 0 -1.98095 0 0 0 0 0 0 0.01 
150 1 15 -0.0104758 -0.0692281 0.205828 0 0 -1.98095 0 0 0 0 0 0 0.01 
151 1 16 -0.0381358 0.179521 0.0764444 0.0412202 -0.034102 -1.03239 0.176473 0.351902 0.175567 -0.734366 -0.15635 -1.07371 0.01 
152 1 16 -0.0383858 0.179227 0.0854361 0.0394984 -0.0272303 -1.03221 0 0 0 -0.734366 -0.15635 -1.07371 0.01 
153 1 16 -0.0386358 0.178933 0.0944278 0.0377765 -0.0203587 -1.03203 0 0 0 -0.734366 -0.15635 -1.07371 0.01 
154 1 16 -0.0388857 0.178639 0.10342 0.0360547 -0.0134871 -1.03186 0 0 0 -0.734366 -0.15635 -1.07371 0.01 
155 1 16 -0.0391357 0.178344 0.112411 0.0343328 -0.00661549 -1.03168 0 0 0 -0.734366 -0.15635 -1.07371 0.01 
156 1 16 -0.0393857 0.17805 0.121403 0.032611 0.000256124 -1.0315 0 0 0 -0.734366 -0.15635 -1.07371 0.01 
157 1 16 -0.0396357 0.177756 0.130395 0.0308891 0.00712774 -1.03133 0 0 0 -0.734366 -0.15635 -1.07371 0.01 
158 1 16 -0.0398857 0.177461 0.139386 0.0291673 0.0139994 -1.03115 0 0 0 -0.734366 -0.15635 -1.07371 0.01 
159 1 16 -0.0401356 0.177167 0.148378 0.0274454 0.020871 -1.03097 0 0 0 -0.734366 -0.15635 -1.07371 0.01 
160 1 16 -0.0403856 0.176873 0.15737 0.0257236 0.0277426 -1.0308 0 0 0 -0.734366 -0.15635 -1.07371 0.01 
161 1 17 0.0726498 0.092445 0.0111176 -0.0336284 0.0197012 0.108538 0.421131 -0.00484906 0.189356 0.975902 0.947427 0.601824 0.01 
162 1 17 0.0726615 0.0923708 0.0201173 -0.0250572 0.0109254 0.108455 0.219221 0.097281 0.706628 0.975902 0.947427 0.601824 0.01 
163 1 17 0.0726731 0.0922967 0.029117 -0.016486 0.00214964 0.108371 0 0 0 0.975902 0.947427 0.601824 0.01 
164 1 17 0.0726848 0.0922225 0.0381167 -0.00791487 -0.00662614 0.108288 0 0 0 0.975902 0.947427 0.601824 0.01 
165 1 17 0.0726965 0.0921484 0.0471164 0.000656298 -0.0154019 0.108204 0 0 0 0.975902 0.947427 0.601824 0.01 
166 1 17 0.0727082 0.0920743 0.0561161 0.00922747 -0.0241777 0.108121 0 0 0 0.975902 0.947427 0.601824 0.01 
167 1 17 0.0727199 0.0920001 0.0651157 0.0177986 -0.0329535 0.108037 0 0 0 0.975902 0.947427 0.601824 0.01 
168 1 17 0.0727316 0.091926 0.0741154 0.0263698 -0.0417293 0.107954 0 0 0 0.975902 0.947427 0.601824 0.01 
169 1 17 0.0727433 0.0918519 0.0831151 0.034941 -0.050505 0.107871 0 0 0 0.975902 0.947427 0.601824 0.01 
170 1 17 0.072755 0.0917777 0.0921148 0.0435121 -0.0592808 0.107787 0 0 0 0.975902 0.947427 0.601824 0.01 
171 1 18 -0.239878 -0.0407392 0.179268 -0.0791553 -0.286881 -1.16189 0 0 0 -3.53787 0.160056 -5.3894 0.01 
172 1 18 -0.239718 -0.0399891 0.188236 -0.073677 -0.256022 -1.16457 0 0 0 -3.53787 0.160056 -5.3894 0.01 
173 1 18 -0.239557 -0.0392389 0.197203 -0.0681988 -0.225163 -1.16725 0 0 0 -3.53787 0.160056 -5.3894 0.01 
174 1 18 -0.239396 -0.0384887 0.20617 -0.0627205 -0.194304 -1.16993 0 0 0 -3.53787 0.160056 -5.3894 0.01 
175 1 18 -0.239236 -0.0377385 0.215137 -0.0572423 -0.163446 -1.17261 0 0 0 -3.53787 0.160056 -5.3894 0.01 
176 1 18 -0.239075 -0.0369884 0.224104 -0.051764 -0.132587 -1.17529 0 0 0 -3.53787 0.160056 -5.3894 0.01 
177 1 18 -0.238914 -0.0362382 0.233072 -0.0462858 -0.101728 -1.17797 0 0 0 -3.53787 0.160056 -5.3894 0.01 
178 1 18 -0.238753 -0.035488 0.242039 -0.0408075 -0.0708696 -1.18065 0 0 0 -3.53787 0.160056 -5.3894 0.01 
179 1 18 -0.238593 -0.0347378 0.251006 -0.0353293 -0.0400109 -1.18333 0 0 0 -3.53787 0.160056 -5.3894 0.01 
180 1 18 -0.238432 -0.0339877 0.259973 -0.029851 -0.00915215 -1.18601 0 0 0 -3.53787 0.160056 -5.3894 0.01 
181 1 19 0.0032501 0.165545 0.138689 -0.0519374 0.0161217 -1.74542 0 0 0 2.52039 3.94076 4.36808 0.01 
182 1 19 0.00331042 0.165506 0.147688 -0.0163019 -0.00629759 -1.74576 0 0 0 2.52039 3.94076 4.36808 0.01 
183 1 19 0.00337074 0.165467 0.156688 0.0193336 -0.0287169 -1.74609 0 0 0 2.52039 3.94076 4.36808 0.01 
184 1 19 0.00343106 0.165428 0.165688 0.0549691 -0.0511362 -1.74643 0 0 0 2.52039 3.94076 4.36808 0.01 
185 1 19 0.00349138 0.165389 0.174687 0.0906047 -0.0735554 -1.74676 0 0 0 2.52039 3.94076 4.36808 0.01 
186 1 19 0.0035517 0.165351 0.183687 0.12624 -0.0959747 -1.7471 -0.649621 0.348008 0.327361 2.52039 3.94076 4.36808 0.01 
187 1 19 0.00361202 0.165312 0.192687 0.161876 -0.118394 -1.74743 1.01963 -0.604707 0.660982 2.52039 3.94076 4.36808 0.01 
188 1 19 0.00367235 0.165273 0.201687 0.197511 -0.140813 -1.74777 0 0 0 2.52039 3.94076 4.36808 0.01 
189 1 19 0.00373267 0.165234 0.210686 0.233147 -0.163233 -1.74811 0 0 0 2.52039 3.94076 4.36808 0.01 
190 1 19 0.00379299 0.165195 0.219686 0.268782 -0.185652 -1.74844 0 0 0 2.52039 3.94076 4.36808 0.01 
191 1 20 -0.00716942 0.187417 0.0104959 -0.0320368 -0.0301386 -0.17856 0 0 0 -2.0762 0.754186 7.87947 0.01 
192 1 20 -0.00708159 0.187658 0.0194922 -0.0271511 -0.0107682 -0.179127 0 0 0 -2.0762 0.754186 7.87947 0.01 
193 1 20 -0.00699375 0.187899 0.0284885 -0.0222654 0.0086021 -0.179694 0 0 0 -2.0762 0.754186 7.87947 0.01 
194 1 20 -0.00690592 0.18814 0.0374849 -0.0173798 0.0279724 -0.180261 0 0 0 -2.0762 0.754186 7.87947 0.01 
195 1 20 -0.00681808 0.188381 0.0464812 -0.0124941 0.0473428 -0.180827 0 0 0 -2.0762 0.754186 7.87947 0.01 
196 1 20 -0.00673024 0.188622 0.0554776 -0.00760842 0.0667131 -0.181394 0 0 0 -2.0762 0.754186 7.87947 0.01 
197 1 20 -0.00664241 0.188863 0.0644739 -0.00272275 0.0860834 -0.181961 0 0 0 -2.0762 0.754186 7.87947 0.01 
198 1 20 -0.00655457 0.189104 0.0734703 0.00216292 0.105454 -0.182527 0 0 0 -2.0762 0.754186 7.87947 0.01 
199 1 20 -0.00646674 0.189345 0.0824666 0.00704858 0.124824 -0.183094 0 0 0 -2.0762 0.754186 7.87947 0.01 
200 1 20 -0.0063789 0.189586 0.0914629 0.0119343 0.144194 -0.183661 0 0 0 -2.0762 0.754186 7.87947 0.01 
201 1 21 0.0190693 0.00399674 0.00989343 -0.00971687 0.00818765 -0.0190962 0.0345174 -0.0468235 0.0872041 -1.50603 -1.15475 -1.75309 0.01 
202 1 21 0.0186069 0.00450326 0.0188673 -0.0191914 0.022513 -0.0203929 0 0 0 -1.50603 -1.15475 -1.75309 0.01 
203 1 21 0.0181446 0.00500978 0.0278411 -0.028666 0.0368383 -0.0216896 0 0 0 -1.50603 -1.15475 -1.75309 0.01 
204 1 21 0.0176823 0.00551631 0.0368149 -0.0381405 0.0511636 -0.0229863 0 0 0 -1.50603 -1.15475 -1.75309 0.01 
205 1 21 0.01722 0.00602283 0.0457888 -0.0476151 0.0654889 -0.024283 0 0 0 -1.50603 -1.15475 -1.75309 0.01 
206 1 21 0.0167577 0.00652935 0.0547626 -0.0570896 0.0798142 -0.0255797 0 0 0 -1.50603 -1.15475 -1.75309 0.01 
207 1 21 0.0162953 0.00703587 0.0637364 -0.0665641 0.0941395 -0.0268764 0 0 0 -1.50603 -1.15475 -1.75309 0.01 
208 1 21 0.015833 0.0075424 0.0727103 -0.0760387 0.108465 -0.0281731 0 0 0 -1.50603 -1.15475 -1.75309 0.01 
209 1 21 0.0153707 0.00804892 0.0816841 -0.0855132 0.12279 -0.0294698 0 0 0 -1.50603 -1.15475 -1.75309 0.01 
210 1 21 0.0149084 0.00855544 0.0906579 -0.0949878 0.137115 -0.0307665 -0.0295915 0.0297507 -0.563627 -1.50603 -1.15475 -1.75309 0.01 
211 1 22 0.00309004 0.198759 0.106807 0.0453867 0.34012 0.351681 -0.607767 0.635705 13.8064 5.69691 -3.54021 9.12264 0.01 
212 1 22 0.00297732 0.198545 0.115804 0.0154852 0.287838 0.350065 0 0 0 5.69691 -3.54021 9.12264 0.01 
213 1 22 0.00286461 0.198331 0.124801 -0.0144162 0.235556 0.348449 0 0 0 5.69691 -3.54021 9.12264 0.01 
214 1 22 0.00275189 0.198118 0.133798 -0.0443177 0.183274 0.346833 0 0 0 5.69691 -3.54021 9.12264 0.01 
215 1 22 0.00263918 0.197904 0.142794 -0.0742191 0.130992 0.345217 0 0 0 5.69691 -3.54021 9.12264 0.01 
216 1 22 0.00252646 0.197691 0.151791 -0.104121 0.0787104 0.343601 0 0 0 5.69691 -3.54021 9.12264 0.01 
217 1 22 0.00241375 0.197477 0.160788 -0.134022 0.0264284 0.341984 0 0 0 5.69691 -3.54021 9.12264 0.01 
218 1 22 0.00230103 0.197263 0.169785 -0.163923 -0.0258536 0.340368 0 0 0 5.69691 -3.54021 9.12264 0.01 
219 1 22 0.00218831 0.19705 0.178781 -0.193825 -0.0781356 0.338752 0 0 0 5.69691 -3.54021 9.12264 0.01 
220 1 22 0.0020756 0.196836 0.187778 -0.223726 -0.130418 0.337136 0 0 0 5.69691 -3.54021 9.12264 0.01 
221 1 23 0.214349 0.0539113 0.18776 0 0 -1.98095 0 0 0 0 0 0 0.01 
222 1 23 0.214349 0.0539113 0.19676 0 0 -1.98095 0 0 0 0 0 0 0.01 
223 1 23 0.214349 0.0539113 0.20576 0 0 -1.98095 0 0 0 0 0 0 0.01 
224 1 23 0.214349 0.0539113 0.21476 0 0 -1.98095 0 0 0 0 0 0 0.01 
225 1 23 0.214349 0.0539113 0.22376 0 0 -1.98095 0 0 0 0 0 0 0.01 
226 1 23 0.214349 0.0539113 0.23276 0 0 -1.98095 0 0 0 0 0 0 0.01 
227 1 23 0.214349 0.0539113 0.24176 0 0 -1.98095 0 0 0 0 0 0 0.01 
228 1 23 0.214349 0.0539113 0.25076 0 0 -1.98095 0 0 0 0 0 0 0.01 
229 1 23 0.214349 0.0539113 0.25976 0 0 -1.98095 0 0 0 0 0 0 0.01 
230 1 23 0.214349 0.0539113 0.26876 0 0 -1.98095 0 0 0 0 0 0 0.01 
231 1 24 0.157833 0.02496 0.00959276 0.00329086 -0.0450844 -0.0199795 0.148523 -0.604305 7.42778 3.98795 1.41374 1.69613 0.01 
232 1 24 0.157978 0.0240934 0.0185498 0.0174236 -0.0805584 -0.0236406 0 0 0 3.98795 1.41374 1.69613 0.01 
233 1 24 0.158123 0.0232268 0.0275068 0.0315563 -0.116032 -0.0273016 0 0 0 3.98795 1.41374 1.69613 0.01 
234 1 24 0.158268 0.0223603 0.0364638 0.0456891 -0.151506 -0.0309626 0 0 0 3.98795 1.41374 1.69613 0.01 
235 1 24 0.158414 0.0214937 0.0454208 0.0598218 -0.18698 -0.0346237 0 0 0 3.98795 1.41374 1.69613 0.01 
236 1 24 0.158559 0.0206271 0.0543778 0.0739546 -0.222454 -0.0382847 0 0 0 3.98795 1.41374 1.69613 0.01 
237 1 24 0.158704 0.0197605 0.0633348 0.0880873 -0.257928 -0.0419457 0 0 0 3.98795 1.41374 1.69613 0.01 
238 1 24 0.158849 0.018894 0.0722918 0.10222 -0.293402 -0.0456068 0 0 0 3.98795 1.41374 1.69613 0.01 
239 1 24 0.158994 0.0180274 0.0812488 0.116353 -0.328876 -0.0492678 0 0 0 3.98795 1.41374 1.69613 0.01 
240 1 24 0.159139 0.0171608 0.0902058 0.130486 -0.36435 -0.0529288 0.333112 0.115582 -2.08777 3.98795 1.41374 1.69613 0.01 
241 1 25 0.134963 -0.174125 0.125584 0 0 -1.98095 0 0 0 0 0 0 0.01 
242 1 25 0.134963 -0.174125 0.134584 0 0 -1.98095 0 0 0 0 0 0 0.01 
243 1 25 0.134963 -0.174125 0.143584 0 0 -1.98095 0 0 0 0 0 0 0.01 
244 1 25 0.134963 -0.174125 0.152584 0 0 -1.98095 0 0 0 0 0 0 0.01 
245 1 25 0.134963 -0.174125 0.161584 0 0 -1.98095 0 0 0 0 0 0 0.01 
246 1 25 0.134963 -0.174125 0.170584 0 0 -1.98095 0 0 0 0 0 0 0.01 
247 1 25 0.134963 -0.174125 0.179584 0 0 -1.98095 0 0 0 0 0 0 0.01 
248 1 25 0.134963 -0.174125 0.188584 0 0 -1.98095 0 0 0 0 0 0 0.01 
249 1 25 0.134963 -0.174125 0.197584 0 0 -1.98095 0 0 0 0 0 0 0.01 
250 1 25 0.134963 -0.174125 0.206584 0 0 -1.98095 0 0 0 0 0 0 0.01 
251 1 26 -0.00966804 -0.16974 0.0099248 0.0196204 -0.02392 0.551216 -0.150103 0.173625 -9.3895 1.81818 1.46682 1.08041 0.01 
252 1 26 -0.00940754 -0.170045 0.0189159 0.033138 -0.0399859 0.55028 0 0 0 1.81818 1.46682 1.08041 0.01 
253 1 26 -0.00914703 -0.17035 0.0279069 0.0466556 -0.0560518 0.549344 0 0 0 1.81818 1.46682 1.08041 0.01 
254 1 26 -0.00888653 -0.170655 0.036898 0.0601732 -0.0721177 0.548407 0 0 0 1.81818 1.46682 1.08041 0.01 
255 1 26 -0.00862603 -0.170959 0.0458891 0.0736908 -0.0881836 0.547471 0 0 0 1.81818 1.46682 1.08041 0.01 
256 1 26 -0.00836552 -0.171264 0.0548801 0.0872084 -0.10425 0.546535 0 0 0 1.81818 1.46682 1.08041 0.01 
257 1 26 -0.00810502 -0.171569 0.0638712 0.100726 -0.120315 0.545598 0 0 0 1.81818 1.46682 1.08041 0.01 
258 1 26 -0.00784452 -0.171874 0.0728622 0.114244 -0.136381 0.544662 0 0 0 1.81818 1.46682 1.08041 0.01 
259 1 26 -0.00758402 -0.172179 0.0818533 0.127761 -0.152447 0.543726 0 0 0 1.81818 1.46682 1.08041 0.01 
260 1 26 -0.00732351 -0.172483 0.0908444 0.141279 -0.168513 0.542789 0 0 0 1.81818 1.46682 1.08041 0.01 
261 1 27 -0.144488 0.151991 0.131789 0.0392051 0.0427025 -1.69431 0 0 0 0.867534 -0.372129 -0.975871 0.01 
262 1 27 -0.144593 0.15174 0.140785 0.0356121 0.0350011 -1.69457 0 0 0 0.867534 -0.372129 -0.975871 0.01 
263 1 27 -0.144699 0.151488 0.149781 0.032019 0.0272996 -1.69483 0 0 0 0.867534 -0.372129 -0.975871 0.01 
264 1 27 -0.144804 0.151237 0.158777 0.028426 0.0195981 -1.69508 0 0 0 0.867534 -0.372129 -0.975871 0.01 
265 1 27 -0.144909 0.150985 0.167773 0.0248329 0.0118966 -1.69534 0 0 0 0.867534 -0.372129 -0.975871 0.01 
266 1 27 -0.145014 0.150734 0.176769 0.0212399 0.00419509 -1.6956 0 0 0 0.867534 -0.372129 -0.975871 0.01 
267 1 27 -0.14512 0.150482 0.185764 0.0176468 -0.0035064 -1.69586 0 0 0 0.867534 -0.372129 -0.975871 0.01 
268 1 27 -0.145225 0.150231 0.19476 0.0140538 -0.0112079 -1.69611 0 0 0 0.867534 -0.372129 -0.975871 0.01 
269 1 27 -0.14533 0.149979 0.203756 0.0104607 -0.0189094 -1.69637 0 0 0 0.867534 -0.372129 -0.975871 0.01 
270 1 27 -0.145436 0.149728 0.212752 0.00686768 -0.0266109 -1.69663 0 0 0 0.867534 -0.372129 -0.975871 0.01 
271 1 28 0.0140902 -0.168811 0.108379 -0.000973834 0.0438553 -0.257239 0 0 0 -1.31446 -1.74011 1.22598 0.01 
272 1 28 0.0138576 -0.168549 0.117372 -0.0169438 0.0553913 -0.257988 0 0 0 -1.31446 -1.74011 1.22598 0.01 
273 1 28 0.0136249 -0.168288 0.126365 -0.0329138 0.0669273 -0.258737 0 0 0 -1.31446 -1.74011 1.22598 0.01 
274 1 28 0.0133923 -0.168026 0.135358 -0.0488838 0.0784634 -0.259486 0 0 0 -1.31446 -1.74011 1.22598 0.01 
275 1 28 0.0131597 -0.167764 0.144351 -0.0648538 0.0899994 -0.260234 0 0 0 -1.31446 -1.74011 1.22598 0.01 
276 1 28 0.0129271 -0.167503 0.153345 -0.0808238 0.101535 -0.260983 0 0 0 -1.31446 -1.74011 1.22598 0.01 
277 1 28 0.0126945 -0.167241 0.162338 -0.0967937 0.113071 -0.261732 0 0 0 -1.31446 -1.74011 1.22598 0.01 
278 1 28 0.0124618 -0.166979 0.171331 -0.112764 0.124607 -0.262481 0 0 0 -1.31446 -1.74011 1.22598 0.01 
279 1 28 0.0122292 -0.166718 0.180324 -0.128734 0.136143 -0.263229 0 0 0 -1.31446 -1.74011 1.22598 0.01 
280 1 28 0.0119966 -0.166456 0.189317 -0.144704 0.147679 -0.263978 4.24752 -2.48789 -58.6996 -1.31446 -1.74011 1.22598 0.01 
281 1 29 0.0770889 0.126329 0.0199719 0.00313885 -0.0154553 0.114303 0 0 0 -1.11248 0.240174 -4.05236 0.01 
282 1 29 0.0770891 0.126332 0.0289719 0.00530978 -0.00544386 0.114301 0 0 0 -1.11248 0.240174 -4.05236 0.01 
283 1 29 0.0770893 0.126334 0.0379719 0.00748072 0.00456759 0.114298 0 0 0 -1.11248 0.240174 -4.05236 0.01 
284 1 29 0.0770895 0.126336 0.0469719 0.00965165 0.0145791 0.114295 0 0 0 -1.11248 0.240174 -4.05236 0.01 
285 1 29 0.0770897 0.126339 0.0559719 0.0118226 0.0245905 0.114293 0 0 0 -1.11248 0.240174 -4.05236 0.01 
286 1 29 0.0770899 0.126341 0.0649719 0.0139935 0.034602 0.11429 0 0 0 -1.11248 0.240174 -4.05236 0.01 
287 1 29 0.0770901 0.126343 0.0739719 0.0161645 0.0446134 0.114287 0 0 0 -1.11248 0.240174 -4.05236 0.01 
288 1 29 0.0770903 0.126346 0.0829719 0.0183354 0.0546249 0.114285 0 0 0 -1.11248 0.240174 -4.05236 0.01 
289 1 29 0.0770905 0.126348 0.0919719 0.0205063 0.0646363 0.114282 3.38174 6.95702 -8.16974 -1.11248 0.240174 -4.05236 0.01 
290 1 29 0.0770907 0.12635 0.100972 0.0226773 0.0746478 0.11428 1.78428 3.72913 -4.85418 -1.11248 0.240174 -4.05236 0.01 
291 1 30 -0.0607292 -0.0517621 0.191179 0.156045 0.517194 -1.30855 0 0 0 7.40301 -0.880403 -9.18447 0.01 
292 1 30 -0.0608799 -0.052382 0.200156 0.142447 0.452119 -1.31327 0 0 0 7.40301 -0.880403 -9.18447 0.01 
293 1 30 -0.0610306 -0.053002 0.209133 0.128849 0.387044 -1.318 0 0 0 7.40301 -0.880403 -9.18447 0.01 
294 1 30 -0.0611813 -0.053622 0.218111 0.115251 0.321969 -1.32272 0 0 0 7.40301 -0.880403 -9.18447 0.01 