ITEM: TIMESTEP
39000
ITEM: NUMBER OF ATOMS
6300
ITEM: BOX BOUNDS mm mm mm
-0.379734 0.39322
-0.387481 0.392588
0 0.5
ITEM: ATOMS id type mol x y z vx vy vz fx fy fz omegax omegay omegaz radius 
1 1 1 -0.155771 -0.113903 0.0801379 -0.289264 -0.0678642 -0.0566385 0 0 0 4.8944 -1.4876 1.91267 0.01 
2 1 1 -0.155429 -0.121892 0.0842673 -0.280125 -0.0874218 -0.0952342 0 0 0 4.8944 -1.4876 1.91267 0.01 
3 1 1 -0.155088 -0.129882 0.0883966 -0.270987 -0.106979 -0.13383 -0.437383 -0.132154 -0.679168 4.8944 -1.4876 1.91267 0.01 
4 1 1 -0.154746 -0.137871 0.092526 -0.261849 -0.126537 -0.172426 0.470173 0.390344 1.15665 4.8944 -1.4876 1.91267 0.01 
5 1 1 -0.154405 -0.145861 0.0966553 -0.25271 -0.146095 -0.211021 0 0 0 4.8944 -1.4876 1.91267 0.01 
6 1 1 -0.154063 -0.15385 0.100785 -0.243572 -0.165652 -0.249617 0 0 0 4.8944 -1.4876 1.91267 0.01 
7 1 1 -0.153722 -0.16184 0.104914 -0.234434 -0.18521 -0.288213 0 0 0 4.8944 -1.4876 1.91267 0.01 
8 1 1 -0.15338 -0.169829 0.109043 -0.225295 -0.204767 -0.326809 0.898958 0.0477654 3.34526 4.8944 -1.4876 1.91267 0.01 
9 1 1 -0.153039 -0.177818 0.113173 -0.216157 -0.224325 -0.365404 0 0 0 4.8944 -1.4876 1.91267 0.01 
10 1 1 -0.152697 -0.185808 0.117302 -0.207018 -0.243882 -0.404 0 0 0 4.8944 -1.4876 1.91267 0.01 
11 1 2 -0.0212568 -0.12808 0.0230803 0.0113723 0.0553854 -0.0775966 -0.419581 -0.12598 -0.113724 3.55784 -3.08986 2.38981 0.01 
12 1 2 -0.0247101 -0.131017 0.0308552 -0.00563205 0.0194709 -0.0987163 0.748383 0.758462 1.31635 3.55784 -3.08986 2.38981 0.01 
13 1 2 -0.0281634 -0.133954 0.0386301 -0.0226364 -0.0164436 -0.119836 0 0 0 3.55784 -3.08986 2.38981 0.01 
14 1 2 -0.0316167 -0.136891 0.0464049 -0.0396407 -0.052358 -0.140956 -0.358658 -0.803794 -0.749927 3.55784 -3.08986 2.38981 0.01 
15 1 2 -0.0350699 -0.139828 0.0541798 -0.056645 -0.0882725 -0.162075 0.0112688 0.0176701 0.030605 3.55784 -3.08986 2.38981 0.01 
16 1 2 -0.0385232 -0.142765 0.0619547 -0.0736493 -0.124187 -0.183195 0 0 0 3.55784 -3.08986 2.38981 0.01 
17 1 2 -0.0419765 -0.145702 0.0697295 -0.0906536 -0.160101 -0.204315 0 0 0 3.55784 -3.08986 2.38981 0.01 
18 1 2 -0.0454298 -0.148639 0.0775044 -0.107658 -0.196016 -0.225434 0 0 0 3.55784 -3.08986 2.38981 0.01 
19 1 2 -0.0488831 -0.151576 0.0852793 -0.124662 -0.23193 -0.246554 0 0 0 3.55784 -3.08986 2.38981 0.01 
20 1 2 -0.0523363 -0.154513 0.0930542 -0.141667 -0.267845 -0.267674 0.0701005 0.0939887 0.0976018 3.55784 -3.08986 2.38981 0.01 
21 1 3 -0.0280108 -0.0415888 0.0109807 -0.0127722 0.0199544 -0.0202799 0.00615761 0.00956398 0.00110298 -1.8404 -4.97826 3.50419 0.01 
22 1 3 -0.0323328 -0.0472283 0.0165049 -0.0205111 0.0149758 -0.0314172 0 0 0 -1.8404 -4.97826 3.50419 0.01 
23 1 3 -0.0366549 -0.0528677 0.022029 -0.0282501 0.00999721 -0.0425546 0.112178 0.0236356 0.190472 -1.8404 -4.97826 3.50419 0.01 
24 1 3 -0.0409769 -0.0585072 0.0275532 -0.035989 0.00501863 -0.0536919 -0.0761561 -0.0803911 -0.16088 -1.8404 -4.97826 3.50419 0.01 
25 1 3 -0.045299 -0.0641467 0.0330774 -0.043728 4.00573e-05 -0.0648293 0 0 0 -1.8404 -4.97826 3.50419 0.01 
26 1 3 -0.049621 -0.0697861 0.0386015 -0.0514669 -0.00493852 -0.0759666 0 0 0 -1.8404 -4.97826 3.50419 0.01 
27 1 3 -0.0539431 -0.0754256 0.0441257 -0.0592059 -0.0099171 -0.087104 -0.56846 0.854653 1.56197 -1.8404 -4.97826 3.50419 0.01 
28 1 3 -0.0582651 -0.081065 0.0496499 -0.0669448 -0.0148957 -0.0982414 0 0 0 -1.8404 -4.97826 3.50419 0.01 
29 1 3 -0.0625871 -0.0867045 0.055174 -0.0746838 -0.0198742 -0.109379 0 0 0 -1.8404 -4.97826 3.50419 0.01 
30 1 3 -0.0669092 -0.092344 0.0606982 -0.0824227 -0.0248528 -0.120516 0.181539 -0.668404 -0.425564 -1.8404 -4.97826 3.50419 0.01 
31 1 4 -0.0915787 0.12268 0.0108249 -0.0731133 0.00482387 0.0522011 -1.74549 2.19534 -4.03717 -2.66397 0.693009 3.40181 0.01 
32 1 4 -0.0946779 0.128916 0.0165273 -0.0903725 0.00947198 0.0377385 0 0 0 -2.66397 0.693009 3.40181 0.01 
33 1 4 -0.0977771 0.135151 0.0222296 -0.107632 0.0141201 0.0232759 2.17605 -2.49017 6.86223 -2.66397 0.693009 3.40181 0.01 
34 1 4 -0.100876 0.141386 0.027932 -0.124891 0.0187682 0.00881325 0.0438788 0.0107535 0.17733 -2.66397 0.693009 3.40181 0.01 
35 1 4 -0.103975 0.147621 0.0336344 -0.14215 0.0234163 -0.00564936 0 0 0 -2.66397 0.693009 3.40181 0.01 
36 1 4 -0.107075 0.153856 0.0393368 -0.159409 0.0280644 -0.020112 -0.012822 -0.0120626 0.00204286 -2.66397 0.693009 3.40181 0.01 
37 1 4 -0.110174 0.160092 0.0450392 -0.176669 0.0327125 -0.0345746 0.262576 -0.0174377 0.0192438 -2.66397 0.693009 3.40181 0.01 
38 1 4 -0.113273 0.166327 0.0507416 -0.193928 0.0373606 -0.0490372 0.363921 -0.00455235 -0.0257187 -2.66397 0.693009 3.40181 0.01 
39 1 4 -0.116372 0.172562 0.056444 -0.211187 0.0420087 -0.0634998 -0.859941 0.180995 -2.51358 -2.66397 0.693009 3.40181 0.01 
40 1 4 -0.119471 0.178797 0.0621463 -0.228446 0.0466568 -0.0779624 0.00799016 -0.00737081 -0.026538 -2.66397 0.693009 3.40181 0.01 
41 1 5 0.0800408 -0.135925 0.00986877 0.0131265 -0.0126763 0.00398585 0.0935638 0.543226 1.19005 1.27343 1.22296 3.05141 0.01 
42 1 5 0.0817052 -0.135283 0.0186902 0.0219555 -0.0188311 0.00276801 0.0614835 -0.201308 -0.231386 1.27343 1.22296 3.05141 0.01 
43 1 5 0.0833696 -0.134641 0.0275116 0.0307845 -0.0249858 0.00155016 -0.150918 -0.52377 -0.242529 1.27343 1.22296 3.05141 0.01 
44 1 5 0.085034 -0.133999 0.0363331 0.0396135 -0.0311406 0.000332319 0 0 0 1.27343 1.22296 3.05141 0.01 
45 1 5 0.0866984 -0.133357 0.0451545 0.0484425 -0.0372953 -0.000885526 0 0 0 1.27343 1.22296 3.05141 0.01 
46 1 5 0.0883628 -0.132715 0.0539759 0.0572716 -0.0434501 -0.00210337 0 0 0 1.27343 1.22296 3.05141 0.01 
47 1 5 0.0900272 -0.132073 0.0627973 0.0661006 -0.0496049 -0.00332122 0 0 0 1.27343 1.22296 3.05141 0.01 
48 1 5 0.0916915 -0.131431 0.0716188 0.0749296 -0.0557596 -0.00453906 0 0 0 1.27343 1.22296 3.05141 0.01 
49 1 5 0.0933559 -0.130789 0.0804402 0.0837586 -0.0619144 -0.00575691 0 0 0 1.27343 1.22296 3.05141 0.01 
50 1 5 0.0950203 -0.130147 0.0892616 0.0925876 -0.0680691 -0.00697475 -0.0860429 0.0499023 -0.140457 1.27343 1.22296 3.05141 0.01 
51 1 6 0.191782 -0.0400242 0.021825 -0.00421236 0.00813471 -0.0437196 0 0 0 15.0955 10.978 0.915057 0.01 
52 1 6 0.184865 -0.0457635 0.0222863 0.00610398 -0.00515909 -0.0544191 -0.141737 0.0718824 0.320853 15.0955 10.978 0.915057 0.01 
53 1 6 0.177948 -0.0515027 0.0227477 0.0164203 -0.0184529 -0.0651186 0 0 0 15.0955 10.978 0.915057 0.01 
54 1 6 0.17103 -0.057242 0.023209 0.0267367 -0.0317467 -0.075818 0 0 0 15.0955 10.978 0.915057 0.01 
55 1 6 0.164113 -0.0629812 0.0236704 0.037053 -0.0450405 -0.0865175 0 0 0 15.0955 10.978 0.915057 0.01 
56 1 6 0.157196 -0.0687205 0.0241317 0.0473693 -0.0583343 -0.097217 0 0 0 15.0955 10.978 0.915057 0.01 
57 1 6 0.150279 -0.0744598 0.024593 0.0576857 -0.0716281 -0.107916 0.331534 -0.264124 0.465955 15.0955 10.978 0.915057 0.01 
58 1 6 0.143361 -0.080199 0.0250544 0.068002 -0.0849219 -0.118616 0.103887 0.0106753 0.224457 15.0955 10.978 0.915057 0.01 
59 1 6 0.136444 -0.0859383 0.0255157 0.0783184 -0.0982157 -0.129315 0 0 0 15.0955 10.978 0.915057 0.01 
60 1 6 0.129527 -0.0916775 0.0259771 0.0886347 -0.111509 -0.140015 0 0 0 15.0955 10.978 0.915057 0.01 
61 1 7 -0.0456581 0.227618 0.00999551 -0.0753857 0.0950793 -0.075367 0.827394 -0.739131 0.742816 -0.490987 2.97827 2.73675 0.01 
62 1 7 -0.0446138 0.234068 0.0161851 -0.0746028 0.100976 -0.0816438 0.0152072 -0.0302594 0.0419805 -0.490987 2.97827 2.73675 0.01 
63 1 7 -0.0435696 0.240517 0.0223746 -0.07382 0.106873 -0.0879206 -0.13198 -0.0175949 0.0108208 -0.490987 2.97827 2.73675 0.01 
64 1 7 -0.0425254 0.246967 0.0285642 -0.0730371 0.11277 -0.0941974 -0.0376546 -0.0019275 0.0259192 -0.490987 2.97827 2.73675 0.01 
65 1 7 -0.0414811 0.253417 0.0347537 -0.0722543 0.118667 -0.100474 0 0 0 -0.490987 2.97827 2.73675 0.01 
66 1 7 -0.0404369 0.259867 0.0409433 -0.0714714 0.124564 -0.106751 0 0 0 -0.490987 2.97827 2.73675 0.01 
67 1 7 -0.0393926 0.266316 0.0471328 -0.0706886 0.13046 -0.113028 0 0 0 -0.490987 2.97827 2.73675 0.01 
68 1 7 -0.0383484 0.272766 0.0533224 -0.0699058 0.136357 -0.119305 0 0 0 -0.490987 2.97827 2.73675 0.01 
69 1 7 -0.0373041 0.279216 0.0595119 -0.0691229 0.142254 -0.125581 0.160006 -0.0125614 0.331028 -0.490987 2.97827 2.73675 0.01 
70 1 7 -0.0362599 0.285666 0.0657015 -0.0683401 0.148151 -0.131858 0 0 0 -0.490987 2.97827 2.73675 0.01 
71 1 8 0.153526 -0.192556 0.0827256 0.239545 -0.297157 -0.335887 0.207541 0.159097 0.29707 4.36842 8.9111 -2.32472 0.01 
72 1 8 0.162194 -0.190809 0.0844034 0.258558 -0.324637 -0.405494 0 0 0 4.36842 8.9111 -2.32472 0.01 
73 1 8 0.170861 -0.189062 0.0860813 0.277572 -0.352117 -0.475101 0 0 0 4.36842 8.9111 -2.32472 0.01 
74 1 8 0.179529 -0.187314 0.0877591 0.296585 -0.379596 -0.544709 0 0 0 4.36842 8.9111 -2.32472 0.01 
75 1 8 0.188197 -0.185567 0.089437 0.315598 -0.407076 -0.614316 0 0 0 4.36842 8.9111 -2.32472 0.01 
76 1 8 0.196865 -0.18382 0.0911148 0.334612 -0.434556 -0.683923 0 0 0 4.36842 8.9111 -2.32472 0.01 
77 1 8 0.205533 -0.182072 0.0927926 0.353625 -0.462036 -0.753531 0 0 0 4.36842 8.9111 -2.32472 0.01 
78 1 8 0.214201 -0.180325 0.0944705 0.372638 -0.489516 -0.823138 0 0 0 4.36842 8.9111 -2.32472 0.01 
79 1 8 0.222869 -0.178578 0.0961483 0.391652 -0.516996 -0.892745 0 0 0 4.36842 8.9111 -2.32472 0.01 
80 1 8 0.231536 -0.176831 0.0978262 0.410665 -0.544476 -0.962353 0 0 0 4.36842 8.9111 -2.32472 0.01 
81 1 9 -0.134096 0.0289409 0.0481277 -0.0914466 -0.019746 -0.132918 0.194935 0.0754701 0.91638 -5.15918 -1.84802 -3.33095 0.01 
82 1 9 -0.127991 0.0304971 0.0545542 -0.0981394 -0.00692777 -0.129664 0 0 0 -5.15918 -1.84802 -3.33095 0.01 
83 1 9 -0.121885 0.0320533 0.0609808 -0.104832 0.00589045 -0.126409 0 0 0 -5.15918 -1.84802 -3.33095 0.01 
84 1 9 -0.115779 0.0336095 0.0674073 -0.111525 0.0187087 -0.123154 0.111253 -0.174032 -0.143887 -5.15918 -1.84802 -3.33095 0.01 
85 1 9 -0.109674 0.0351657 0.0738338 -0.118218 0.0315269 -0.1199 0 0 0 -5.15918 -1.84802 -3.33095 0.01 
86 1 9 -0.103568 0.0367219 0.0802603 -0.124911 0.0443451 -0.116645 0 0 0 -5.15918 -1.84802 -3.33095 0.01 
87 1 9 -0.0974627 0.0382781 0.0866868 -0.131603 0.0571633 -0.11339 0 0 0 -5.15918 -1.84802 -3.33095 0.01 
88 1 9 -0.0913571 0.0398342 0.0931134 -0.138296 0.0699815 -0.110136 0 0 0 -5.15918 -1.84802 -3.33095 0.01 
89 1 9 -0.0852515 0.0413904 0.0995399 -0.144989 0.0827997 -0.106881 0 0 0 -5.15918 -1.84802 -3.33095 0.01 
90 1 9 -0.0791459 0.0429466 0.105966 -0.151682 0.0956179 -0.103627 -0.375694 0.011702 0.711508 -5.15918 -1.84802 -3.33095 0.01 
91 1 10 0.0782608 0.269117 0.0796783 0.191077 0.613469 -0.58512 0 0 0 14.8479 -11.1321 -6.88135 0.01 
92 1 10 0.0708929 0.272457 0.0836222 0.170159 0.605612 -0.617544 0 0 0 14.8479 -11.1321 -6.88135 0.01 
93 1 10 0.0635249 0.275798 0.0875662 0.149241 0.597755 -0.649967 0 0 0 14.8479 -11.1321 -6.88135 0.01 
94 1 10 0.0561569 0.279138 0.0915101 0.128323 0.589897 -0.682391 0 0 0 14.8479 -11.1321 -6.88135 0.01 
95 1 10 0.0487889 0.282478 0.095454 0.107405 0.58204 -0.714815 0 0 0 14.8479 -11.1321 -6.88135 0.01 
96 1 10 0.0414209 0.285819 0.099398 0.0864867 0.574183 -0.747238 0 0 0 14.8479 -11.1321 -6.88135 0.01 
97 1 10 0.034053 0.289159 0.103342 0.0655688 0.566325 -0.779662 0 0 0 14.8479 -11.1321 -6.88135 0.01 
98 1 10 0.026685 0.2925 0.107286 0.0446508 0.558468 -0.812085 0 0 0 14.8479 -11.1321 -6.88135 0.01 
99 1 10 0.019317 0.29584 0.11123 0.0237328 0.550611 -0.844509 0 0 0 14.8479 -11.1321 -6.88135 0.01 
100 1 10 0.011949 0.29918 0.115174 0.00281485 0.542754 -0.876933 0 0 0 14.8479 -11.1321 -6.88135 0.01 
101 1 11 -0.24851 -0.0908383 0.0147014 -0.0588076 -0.119946 -0.00406427 0.327215 0.0167689 0.16059 4.44614 -11.7378 0.726169 0.01 
102 1 11 -0.250364 -0.0981793 0.019567 -0.110588 -0.142925 -0.0584586 0 0 0 4.44614 -11.7378 0.726169 0.01 
103 1 11 -0.252217 -0.10552 0.0244326 -0.162369 -0.165904 -0.112853 -0.0870041 2.28736 2.30101 4.44614 -11.7378 0.726169 0.01 
104 1 11 -0.254071 -0.112861 0.0292982 -0.214149 -0.188883 -0.167247 0 0 0 4.44614 -11.7378 0.726169 0.01 
105 1 11 -0.255924 -0.120202 0.0341638 -0.26593 -0.211862 -0.221642 -0.227962 -0.187474 -0.422193 4.44614 -11.7378 0.726169 0.01 
106 1 11 -0.257777 -0.127543 0.0390294 -0.31771 -0.234841 -0.276036 0 0 0 4.44614 -11.7378 0.726169 0.01 
107 1 11 -0.259631 -0.134884 0.043895 -0.369491 -0.25782 -0.33043 0 0 0 4.44614 -11.7378 0.726169 0.01 
108 1 11 -0.261484 -0.142225 0.0487606 -0.421272 -0.280799 -0.384825 0 0 0 4.44614 -11.7378 0.726169 0.01 
109 1 11 -0.263338 -0.149567 0.0536262 -0.473052 -0.303778 -0.439219 0 0 0 4.44614 -11.7378 0.726169 0.01 
110 1 11 -0.265191 -0.156908 0.0584918 -0.524833 -0.326757 -0.493614 0 0 0 4.44614 -11.7378 0.726169 0.01 
111 1 12 0.121183 0.0449412 0.0467864 0.0543036 0.0248162 -0.169523 -0.0802558 1.57127 2.51249 -2.54837 0.365903 -4.26727 0.01 
112 1 12 0.12342 0.0486577 0.0546722 0.0730482 0.0353691 -0.179812 0 0 0 -2.54837 0.365903 -4.26727 0.01 
113 1 12 0.125656 0.0523741 0.0625581 0.0917927 0.045922 -0.190102 0 0 0 -2.54837 0.365903 -4.26727 0.01 
114 1 12 0.127892 0.0560906 0.0704439 0.110537 0.056475 -0.200391 0 0 0 -2.54837 0.365903 -4.26727 0.01 
115 1 12 0.130129 0.059807 0.0783298 0.129282 0.0670279 -0.21068 0 0 0 -2.54837 0.365903 -4.26727 0.01 
116 1 12 0.132365 0.0635235 0.0862157 0.148026 0.0775808 -0.220969 0 0 0 -2.54837 0.365903 -4.26727 0.01 
117 1 12 0.134602 0.0672399 0.0941015 0.166771 0.0881337 -0.231258 0 0 0 -2.54837 0.365903 -4.26727 0.01 
118 1 12 0.136838 0.0709564 0.101987 0.185515 0.0986866 -0.241547 0.501641 -0.210048 -0.506838 -2.54837 0.365903 -4.26727 0.01 
119 1 12 0.139074 0.0746728 0.109873 0.20426 0.109239 -0.251837 -0.525753 0.207565 0.217459 -2.54837 0.365903 -4.26727 0.01 
120 1 12 0.141311 0.0783893 0.117759 0.223004 0.119792 -0.262126 0 0 0 -2.54837 0.365903 -4.26727 0.01 
121 1 13 -0.0037107 0.292829 0.0639978 -0.219606 0.0698383 -0.135669 -2.04498 -1.2058 2.09239 -2.12837 -7.29901 6.24791 0.01 
122 1 13 -0.00798323 0.287521 0.069877 -0.229352 0.0556571 -0.155556 0 0 0 -2.12837 -7.29901 6.24791 0.01 
123 1 13 -0.0122558 0.282212 0.0757563 -0.239097 0.0414758 -0.175443 0 0 0 -2.12837 -7.29901 6.24791 0.01 
124 1 13 -0.0165283 0.276904 0.0816355 -0.248843 0.0272946 -0.19533 0 0 0 -2.12837 -7.29901 6.24791 0.01 
125 1 13 -0.0208008 0.271595 0.0875147 -0.258588 0.0131134 -0.215216 0 0 0 -2.12837 -7.29901 6.24791 0.01 
126 1 13 -0.0250734 0.266287 0.093394 -0.268334 -0.00106784 -0.235103 0 0 0 -2.12837 -7.29901 6.24791 0.01 
127 1 13 -0.0293459 0.260978 0.0992732 -0.278079 -0.0152491 -0.25499 0 0 0 -2.12837 -7.29901 6.24791 0.01 
128 1 13 -0.0336184 0.25567 0.105152 -0.287825 -0.0294303 -0.274877 0 0 0 -2.12837 -7.29901 6.24791 0.01 
129 1 13 -0.037891 0.250361 0.111032 -0.29757 -0.0436115 -0.294764 0 0 0 -2.12837 -7.29901 6.24791 0.01 
130 1 13 -0.0421635 0.245053 0.116911 -0.307316 -0.0577928 -0.31465 0 0 0 -2.12837 -7.29901 6.24791 0.01 
131 1 14 -0.0464268 0.126817 0.0132465 0.0276154 -0.0100952 0.089822 0.512765 0.368147 -0.749187 -4.5588 -6.05921 -2.1804 0.01 
132 1 14 -0.0462657 0.133608 0.0191509 0.0066459 0.0164703 0.0598412 0.381692 0.223299 -0.542733 -4.5588 -6.05921 -2.1804 0.01 
133 1 14 -0.0461045 0.140398 0.0250553 -0.0143236 0.0430358 0.0298604 -0.898124 -0.29394 0.912408 -4.5588 -6.05921 -2.1804 0.01 
134 1 14 -0.0459434 0.147189 0.0309596 -0.0352932 0.0696013 -0.000120377 -0.405082 -0.218214 1.1107 -4.5588 -6.05921 -2.1804 0.01 
135 1 14 -0.0457823 0.15398 0.036864 -0.0562627 0.0961668 -0.0301012 0.0119165 -0.467862 0.855379 -4.5588 -6.05921 -2.1804 0.01 
136 1 14 -0.0456212 0.16077 0.0427684 -0.0772323 0.122732 -0.0600819 0.0345432 -0.389481 0.587377 -4.5588 -6.05921 -2.1804 0.01 
137 1 14 -0.0454601 0.167561 0.0486727 -0.0982018 0.149298 -0.0900627 0 0 0 -4.5588 -6.05921 -2.1804 0.01 
138 1 14 -0.0452989 0.174351 0.0545771 -0.119171 0.175863 -0.120044 0 0 0 -4.5588 -6.05921 -2.1804 0.01 
139 1 14 -0.0451378 0.181142 0.0604815 -0.140141 0.202429 -0.150024 0 0 0 -4.5588 -6.05921 -2.1804 0.01 
140 1 14 -0.0449767 0.187933 0.0663858 -0.16111 0.228994 -0.180005 0.329664 0.137898 -0.645688 -4.5588 -6.05921 -2.1804 0.01 
141 1 15 -0.00854459 -0.0614756 0.00974658 0.0165102 -0.0171948 -0.00600398 -1.22423 1.20829 3.36337 -1.90828 -3.3044 2.01622 0.01 
142 1 15 -0.0130592 -0.0650319 0.0166727 0.000793874 -0.0130803 -0.0141355 0.0221638 -0.596258 -1.16968 -1.90828 -3.3044 2.01622 0.01 
143 1 15 -0.0175738 -0.0685883 0.0235988 -0.0149224 -0.00896578 -0.022267 0.0336634 -1.32437 -2.05299 -1.90828 -3.3044 2.01622 0.01 
144 1 15 -0.0220883 -0.0721446 0.0305249 -0.0306387 -0.00485126 -0.0303986 0.803126 0.58814 0.398681 -1.90828 -3.3044 2.01622 0.01 
145 1 15 -0.0266029 -0.075701 0.037451 -0.046355 -0.000736731 -0.0385301 0.910363 -0.0464652 1.38097 -1.90828 -3.3044 2.01622 0.01 
146 1 15 -0.0311175 -0.0792573 0.0443771 -0.0620713 0.0033778 -0.0466616 -0.21253 0.0303841 -0.213937 -1.90828 -3.3044 2.01622 0.01 
147 1 15 -0.0356321 -0.0828136 0.0513032 -0.0777875 0.00749232 -0.0547931 -0.21833 0.0211106 -0.214692 -1.90828 -3.3044 2.01622 0.01 
148 1 15 -0.0401467 -0.08637 0.0582293 -0.0935038 0.0116068 -0.0629247 -0.198338 0.0133439 -0.18993 -1.90828 -3.3044 2.01622 0.01 
149 1 15 -0.0446613 -0.0899263 0.0651554 -0.10922 0.0157214 -0.0710562 -0.154006 0.00797338 -0.143716 -1.90828 -3.3044 2.01622 0.01 
150 1 15 -0.0491758 -0.0934827 0.0720815 -0.124936 0.0198359 -0.0791877 0 0 0 -1.90828 -3.3044 2.01622 0.01 
151 1 16 -0.0479439 0.18532 0.0138334 -0.0612411 0.0368781 -0.00367079 -0.229206 0.236745 -0.838542 -1.98374 -6.07196 -3.98781 0.01 
152 1 16 -0.0464869 0.192597 0.0189245 -0.0631332 0.0411672 -0.00926021 0 0 0 -1.98374 -6.07196 -3.98781 0.01 
153 1 16 -0.0450299 0.199874 0.0240155 -0.0650254 0.0454562 -0.0148496 -0.00101493 -0.00260286 0.00457424 -1.98374 -6.07196 -3.98781 0.01 
154 1 16 -0.0435729 0.207151 0.0291065 -0.0669175 0.0497453 -0.0204391 -0.0253957 -0.0590878 0.106759 -1.98374 -6.07196 -3.98781 0.01 
155 1 16 -0.0421159 0.214429 0.0341975 -0.0688096 0.0540344 -0.0260285 -0.0570083 -0.121042 0.224276 -1.98374 -6.07196 -3.98781 0.01 
156 1 16 -0.0406589 0.221706 0.0392885 -0.0707018 0.0583234 -0.0316179 0.0611833 -0.269161 0.488945 -1.98374 -6.07196 -3.98781 0.01 
157 1 16 -0.0392019 0.228983 0.0443796 -0.0725939 0.0626125 -0.0372073 0.354674 -0.400028 0.80767 -1.98374 -6.07196 -3.98781 0.01 
158 1 16 -0.0377449 0.23626 0.0494706 -0.074486 0.0669016 -0.0427967 0.0429009 -0.336321 0.622118 -1.98374 -6.07196 -3.98781 0.01 
159 1 16 -0.0362879 0.243538 0.0545616 -0.0763782 0.0711906 -0.0483862 -0.36268 0.0174288 0.30616 -1.98374 -6.07196 -3.98781 0.01 
160 1 16 -0.0348309 0.250815 0.0596526 -0.0782703 0.0754797 -0.0539756 -0.120695 0.30507 -1.60125 -1.98374 -6.07196 -3.98781 0.01 
161 1 17 0.0754634 0.0895968 0.00989862 0.00456394 0.00421155 -0.013166 0.637264 -0.305494 0.751911 -0.496337 1.05321 -0.877821 0.01 
162 1 17 0.0799468 0.0878849 0.0175123 0.0110799 0.00405483 -0.0170383 0 0 0 -0.496337 1.05321 -0.877821 0.01 
163 1 17 0.0844303 0.0861729 0.0251259 0.0175959 0.0038981 -0.0209106 0 0 0 -0.496337 1.05321 -0.877821 0.01 
164 1 17 0.0889137 0.0844609 0.0327396 0.0241118 0.00374138 -0.0247829 -0.332438 0.199427 0.486539 -0.496337 1.05321 -0.877821 0.01 
165 1 17 0.0933972 0.0827489 0.0403533 0.0306278 0.00358465 -0.0286552 -0.108128 0.0366791 0.153339 -0.496337 1.05321 -0.877821 0.01 
166 1 17 0.0978806 0.081037 0.0479669 0.0371438 0.00342793 -0.0325275 0 0 0 -0.496337 1.05321 -0.877821 0.01 
167 1 17 0.102364 0.079325 0.0555806 0.0436597 0.0032712 -0.0363998 0 0 0 -0.496337 1.05321 -0.877821 0.01 
168 1 17 0.106848 0.077613 0.0631943 0.0501757 0.00311448 -0.040272 0 0 0 -0.496337 1.05321 -0.877821 0.01 
169 1 17 0.111331 0.075901 0.0708079 0.0566917 0.00295775 -0.0441443 0 0 0 -0.496337 1.05321 -0.877821 0.01 
170 1 17 0.115814 0.0741891 0.0784216 0.0632076 0.00280103 -0.0480166 -0.410789 -0.213554 -0.468617 -0.496337 1.05321 -0.877821 0.01 
171 1 18 -0.328743 -0.0429766 0.00984132 -0.00233917 -0.0316041 -0.00165275 0.585512 0.823468 1.7056 1.01261 -1.03863 10.0147 0.01 
172 1 18 -0.327709 -0.0396427 0.0181369 -0.044343 -0.0296532 0.0027967 0.112424 -0.225923 -0.133123 1.01261 -1.03863 10.0147 0.01 
173 1 18 -0.326676 -0.0363088 0.0264325 -0.0863468 -0.0277022 0.00724614 0 0 0 1.01261 -1.03863 10.0147 0.01 
174 1 18 -0.325642 -0.032975 0.0347281 -0.128351 -0.0257512 0.0116956 0 0 0 1.01261 -1.03863 10.0147 0.01 
175 1 18 -0.324609 -0.0296411 0.0430237 -0.170354 -0.0238003 0.016145 0 0 0 1.01261 -1.03863 10.0147 0.01 
176 1 18 -0.323575 -0.0263072 0.0513193 -0.212358 -0.0218493 0.0205945 0 0 0 1.01261 -1.03863 10.0147 0.01 
177 1 18 -0.322541 -0.0229733 0.0596149 -0.254362 -0.0198984 0.0250439 0 0 0 1.01261 -1.03863 10.0147 0.01 
178 1 18 -0.321508 -0.0196395 0.0679105 -0.296366 -0.0179474 0.0294934 0 0 0 1.01261 -1.03863 10.0147 0.01 
179 1 18 -0.320474 -0.0163056 0.0762061 -0.33837 -0.0159964 0.0339428 0 0 0 1.01261 -1.03863 10.0147 0.01 
180 1 18 -0.319441 -0.0129717 0.0845017 -0.380373 -0.0140455 0.0383923 -1.15002 -0.81363 -1.12615 1.01261 -1.03863 10.0147 0.01 
181 1 19 0.0177224 0.229639 0.0765949 0.0158527 0.273382 -0.18427 0 0 0 0.341969 -1.99203 0.216656 0.01 
182 1 19 0.0176713 0.222531 0.0821149 0.00639671 0.271483 -0.186802 -0.373638 -0.0224005 0.602107 0.341969 -1.99203 0.216656 0.01 
183 1 19 0.0176202 0.215423 0.0876349 -0.00305926 0.269584 -0.189335 0 0 0 0.341969 -1.99203 0.216656 0.01 
184 1 19 0.0175692 0.208314 0.0931548 -0.0125152 0.267686 -0.191867 -0.0216331 -0.169515 -0.190074 0.341969 -1.99203 0.216656 0.01 
185 1 19 0.0175181 0.201206 0.0986748 -0.0219712 0.265787 -0.1944 0 0 0 0.341969 -1.99203 0.216656 0.01 
186 1 19 0.017467 0.194098 0.104195 -0.0314272 0.263888 -0.196932 0 0 0 0.341969 -1.99203 0.216656 0.01 
187 1 19 0.017416 0.18699 0.109715 -0.0408832 0.26199 -0.199465 0 0 0 0.341969 -1.99203 0.216656 0.01 
188 1 19 0.0173649 0.179881 0.115235 -0.0503391 0.260091 -0.201997 0 0 0 0.341969 -1.99203 0.216656 0.01 
189 1 19 0.0173138 0.172773 0.120755 -0.0597951 0.258192 -0.20453 0 0 0 0.341969 -1.99203 0.216656 0.01 
190 1 19 0.0172628 0.165665 0.126275 -0.0692511 0.256293 -0.207063 -0.00411374 0.0949085 0.242487 0.341969 -1.99203 0.216656 0.01 
191 1 20 -0.0086181 0.196141 0.0116502 -0.0397928 0.0331994 -0.000643078 0.747616 0.21228 -0.800616 0.759408 4.15718 4.80492 0.01 
192 1 20 -0.00687581 0.203417 0.0166525 -0.0539587 0.0377722 -0.00236052 -0.577089 -0.440524 0.424311 0.759408 4.15718 4.80492 0.01 
193 1 20 -0.00513353 0.210693 0.0216547 -0.0681245 0.042345 -0.00407797 -0.0922532 -0.0300711 0.104128 0.759408 4.15718 4.80492 0.01 
194 1 20 -0.00339125 0.217969 0.026657 -0.0822903 0.0469178 -0.00579541 0.0183109 -0.0556898 0.233496 0.759408 4.15718 4.80492 0.01 
195 1 20 -0.00164896 0.225245 0.0316593 -0.0964562 0.0514905 -0.00751286 0.0683636 -0.0588017 0.5784 0.759408 4.15718 4.80492 0.01 
196 1 20 9.33201e-05 0.232521 0.0366615 -0.110622 0.0560633 -0.00923031 -0.226317 -0.154889 0.390089 0.759408 4.15718 4.80492 0.01 
197 1 20 0.0018356 0.239797 0.0416638 -0.124788 0.0606361 -0.0109478 -0.0368461 0.131007 -0.207117 0.759408 4.15718 4.80492 0.01 
198 1 20 0.00357789 0.247073 0.046666 -0.138954 0.0652089 -0.0126652 -0.00932279 0.0315253 -0.0588055 0.759408 4.15718 4.80492 0.01 
199 1 20 0.00532017 0.25435 0.0516683 -0.15312 0.0697816 -0.0143826 0 0 0 0.759408 4.15718 4.80492 0.01 
200 1 20 0.00706245 0.261626 0.0566706 -0.167285 0.0743544 -0.0161001 0 0 0 0.759408 4.15718 4.80492 0.01 
201 1 21 0.0119645 0.00400931 0.0108584 -0.0242763 0.0484778 -0.0138519 0.472148 0.452642 -0.260957 -0.653093 4.40452 5.44987 0.01 
202 1 21 0.009911 0.0107602 0.0164448 -0.0364622 0.040935 -0.00921617 -0.00461896 -0.000139853 0.000221779 -0.653093 4.40452 5.44987 0.01 
203 1 21 0.0078575 0.0175111 0.0220313 -0.0486481 0.0333921 -0.00458046 0.114899 -0.272697 0.267478 -0.653093 4.40452 5.44987 0.01 
204 1 21 0.005804 0.024262 0.0276177 -0.060834 0.0258493 5.52527e-05 -0.702942 -0.337332 0.478589 -0.653093 4.40452 5.44987 0.01 
205 1 21 0.00375051 0.0310129 0.0332042 -0.0730199 0.0183065 0.00469096 0 0 0 -0.653093 4.40452 5.44987 0.01 
206 1 21 0.00169701 0.0377639 0.0387906 -0.0852058 0.0107637 0.00932667 0 0 0 -0.653093 4.40452 5.44987 0.01 
207 1 21 -0.00035649 0.0445148 0.0443771 -0.0973917 0.00322086 0.0139624 0 0 0 -0.653093 4.40452 5.44987 0.01 
208 1 21 -0.00240999 0.0512657 0.0499635 -0.109578 -0.00432196 0.0185981 0 0 0 -0.653093 4.40452 5.44987 0.01 
209 1 21 -0.00446349 0.0580166 0.0555499 -0.121764 -0.0118648 0.0232338 0 0 0 -0.653093 4.40452 5.44987 0.01 
210 1 21 -0.00651698 0.0647675 0.0611364 -0.133949 -0.0194076 0.0278695 0.101895 -0.110453 -0.191795 -0.653093 4.40452 5.44987 0.01 
211 1 22 0.0151129 0.280324 0.0675174 -0.0413623 0.0376541 0.0448999 -0.28332 -0.536914 0.691059 3.98068 2.53697 -5.11138 0.01 
212 1 22 0.0111392 0.274483 0.0730933 -0.0570728 0.0357698 0.0317294 0 0 0 3.98068 2.53697 -5.11138 0.01 
213 1 22 0.00716542 0.268642 0.0786691 -0.0727833 0.0338854 0.018559 0 0 0 3.98068 2.53697 -5.11138 0.01 
214 1 22 0.00319167 0.262801 0.084245 -0.0884938 0.0320011 0.0053886 0 0 0 3.98068 2.53697 -5.11138 0.01 
215 1 22 -0.000782091 0.25696 0.0898209 -0.104204 0.0301167 -0.00778182 0 0 0 3.98068 2.53697 -5.11138 0.01 
216 1 22 -0.00475585 0.251118 0.0953967 -0.119915 0.0282324 -0.0209522 0 0 0 3.98068 2.53697 -5.11138 0.01 
217 1 22 -0.00872961 0.245277 0.100973 -0.135625 0.026348 -0.0341227 -0.00803996 0.00617274 -0.0185299 3.98068 2.53697 -5.11138 0.01 
218 1 22 -0.0127034 0.239436 0.106548 -0.151336 0.0244637 -0.0472931 -0.00881686 0.00679902 -0.0198064 3.98068 2.53697 -5.11138 0.01 
219 1 22 -0.0166771 0.233595 0.112124 -0.167046 0.0225793 -0.0604635 0 0 0 3.98068 2.53697 -5.11138 0.01 
220 1 22 -0.0206509 0.227754 0.1177 -0.182757 0.020695 -0.0736339 -0.0372665 0.136089 -0.191502 3.98068 2.53697 -5.11138 0.01 
221 1 23 0.283203 0.0588862 0.0726362 0.34864 0.173112 -0.238724 0 0 0 -5.01071 4.30706 8.3991 0.01 
222 1 23 0.27661 0.0624948 0.0775868 0.339653 0.14254 -0.228408 0 0 0 -5.01071 4.30706 8.3991 0.01 
223 1 23 0.270017 0.0661035 0.0825373 0.330666 0.111969 -0.218093 0 0 0 -5.01071 4.30706 8.3991 0.01 
224 1 23 0.263423 0.0697121 0.0874878 0.321679 0.0813979 -0.207777 -0.0503799 0.00352065 -0.0321519 -5.01071 4.30706 8.3991 0.01 
225 1 23 0.25683 0.0733207 0.0924384 0.312693 0.0508267 -0.197462 0 0 0 -5.01071 4.30706 8.3991 0.01 
226 1 23 0.250237 0.0769293 0.0973889 0.303706 0.0202554 -0.187146 0 0 0 -5.01071 4.30706 8.3991 0.01 
227 1 23 0.243644 0.0805379 0.102339 0.294719 -0.0103158 -0.17683 -0.17295 -0.169482 0.433496 -5.01071 4.30706 8.3991 0.01 
228 1 23 0.237051 0.0841465 0.10729 0.285732 -0.040887 -0.166515 0 0 0 -5.01071 4.30706 8.3991 0.01 
229 1 23 0.230457 0.0877551 0.11224 0.276745 -0.0714583 -0.156199 0 0 0 -5.01071 4.30706 8.3991 0.01 
230 1 23 0.223864 0.0913637 0.117191 0.267758 -0.102029 -0.145884 0 0 0 -5.01071 4.30706 8.3991 0.01 
231 1 24 0.179875 -0.00202471 0.0116352 0.210819 -0.42036 -0.0129295 0 0 0 4.65489 2.08954 7.87497 0.01 
232 1 24 0.187504 -0.000445815 0.0161421 0.207803 -0.381264 -0.0215201 0 0 0 4.65489 2.08954 7.87497 0.01 
233 1 24 0.195133 0.00113308 0.0206489 0.204787 -0.342169 -0.0301108 0.00894434 -0.0212203 0.00583964 4.65489 2.08954 7.87497 0.01 
234 1 24 0.202761 0.00271198 0.0251558 0.20177 -0.303073 -0.0387014 0.0550873 -0.0998973 0.0632448 4.65489 2.08954 7.87497 0.01 
235 1 24 0.21039 0.00429088 0.0296627 0.198754 -0.263977 -0.047292 -0.248526 0.114003 0.343927 4.65489 2.08954 7.87497 0.01 
236 1 24 0.218018 0.00586978 0.0341696 0.195737 -0.224882 -0.0558827 0.118947 -0.158247 0.028693 4.65489 2.08954 7.87497 0.01 
237 1 24 0.225647 0.00744868 0.0386765 0.192721 -0.185786 -0.0644733 0.0189174 -0.193799 0.301911 4.65489 2.08954 7.87497 0.01 
238 1 24 0.233275 0.00902757 0.0431834 0.189704 -0.14669 -0.0730639 -0.00660623 -0.20307 0.331162 4.65489 2.08954 7.87497 0.01 
239 1 24 0.240904 0.0106065 0.0476902 0.186688 -0.107595 -0.0816545 0.0240817 -0.110128 0.48054 4.65489 2.08954 7.87497 0.01 
240 1 24 0.248533 0.0121854 0.0521971 0.183671 -0.0684989 -0.0902452 0.101861 -0.0426361 -0.652457 4.65489 2.08954 7.87497 0.01 
241 1 25 0.140283 -0.223392 0.0499224 -0.0734752 -0.085842 0.0296496 0.06569 0.19534 0.521084 5.78839 9.76405 1.6375 0.01 
242 1 25 0.144896 -0.220951 0.0572545 -0.00588061 -0.120729 -0.00126441 0 0 0 5.78839 9.76405 1.6375 0.01 
243 1 25 0.149509 -0.218511 0.0645867 0.0617139 -0.155617 -0.0321784 0 0 0 5.78839 9.76405 1.6375 0.01 
244 1 25 0.154122 -0.21607 0.0719189 0.129308 -0.190504 -0.0630924 0 0 0 5.78839 9.76405 1.6375 0.01 
245 1 25 0.158735 -0.213629 0.079251 0.196903 -0.225392 -0.0940064 0 0 0 5.78839 9.76405 1.6375 0.01 
246 1 25 0.163348 -0.211188 0.0865832 0.264498 -0.260279 -0.12492 0 0 0 5.78839 9.76405 1.6375 0.01 
247 1 25 0.167962 -0.208747 0.0939153 0.332092 -0.295166 -0.155834 0 0 0 5.78839 9.76405 1.6375 0.01 
248 1 25 0.172575 -0.206306 0.101248 0.399687 -0.330054 -0.186748 0 0 0 5.78839 9.76405 1.6375 0.01 
249 1 25 0.177188 -0.203865 0.10858 0.467281 -0.364941 -0.217663 0 0 0 5.78839 9.76405 1.6375 0.01 
250 1 25 0.181801 -0.201424 0.115912 0.534876 -0.399828 -0.248577 0 0 0 5.78839 9.76405 1.6375 0.01 
251 1 26 -0.00199958 -0.176182 0.0102915 0.0269494 -0.0599519 -0.00332322 0 0 0 0.0853266 2.05158 -0.971698 0.01 
252 1 26 -0.000487467 -0.183101 0.015844 0.0316169 -0.061895 -0.00701589 -0.0740962 -0.0529443 -0.131925 0.0853266 2.05158 -0.971698 0.01 
253 1 26 0.00102465 -0.190021 0.0213965 0.0362843 -0.0638381 -0.0107086 -0.151823 0.21159 -0.206569 0.0853266 2.05158 -0.971698 0.01 
254 1 26 0.00253677 -0.196941 0.0269489 0.0409518 -0.0657812 -0.0144012 0.311469 0.518848 1.83811 0.0853266 2.05158 -0.971698 0.01 