ITEM: TIMESTEP
31000
ITEM: NUMBER OF ATOMS
6300
ITEM: BOX BOUNDS mm mm mm
-0.363546 0.357025
-0.328589 0.375699
0 0.5
ITEM: ATOMS id type mol x y z vx vy vz fx fy fz omegax omegay omegaz radius 
1 1 1 -0.132203 -0.111589 0.0860542 -0.23958 -0.0194811 -0.0810288 0.164326 -0.618823 -0.7267 4.25905 7.80378 -9.99071 0.01 
2 1 1 -0.132053 -0.116603 0.0935262 -0.23137 -0.0528075 -0.10356 0 0 0 4.25905 7.80378 -9.99071 0.01 
3 1 1 -0.131902 -0.121618 0.100998 -0.22316 -0.0861338 -0.126092 -0.163334 0.371288 0.82144 4.25905 7.80378 -9.99071 0.01 
4 1 1 -0.131752 -0.126633 0.10847 -0.21495 -0.11946 -0.148623 0 0 0 4.25905 7.80378 -9.99071 0.01 
5 1 1 -0.131601 -0.131647 0.115942 -0.20674 -0.152787 -0.171154 0 0 0 4.25905 7.80378 -9.99071 0.01 
6 1 1 -0.131451 -0.136662 0.123414 -0.19853 -0.186113 -0.193686 0 0 0 4.25905 7.80378 -9.99071 0.01 
7 1 1 -0.131301 -0.141677 0.130886 -0.190319 -0.219439 -0.216217 0 0 0 4.25905 7.80378 -9.99071 0.01 
8 1 1 -0.13115 -0.146691 0.138358 -0.182109 -0.252766 -0.238749 0 0 0 4.25905 7.80378 -9.99071 0.01 
9 1 1 -0.131 -0.151706 0.14583 -0.173899 -0.286092 -0.26128 0 0 0 4.25905 7.80378 -9.99071 0.01 
10 1 1 -0.130849 -0.15672 0.153302 -0.165689 -0.319418 -0.283811 0 0 0 4.25905 7.80378 -9.99071 0.01 
11 1 2 -0.0208477 -0.125005 0.0309438 -0.00760886 -0.107065 -0.132615 -0.0170076 0.276515 2.07907 3.57498 -0.681251 -4.2829 0.01 
12 1 2 -0.0233706 -0.126053 0.0395193 -0.0179364 -0.126916 -0.138078 0 0 0 3.57498 -0.681251 -4.2829 0.01 
13 1 2 -0.0258935 -0.1271 0.0480947 -0.0282639 -0.146768 -0.143541 0 0 0 3.57498 -0.681251 -4.2829 0.01 
14 1 2 -0.0284163 -0.128147 0.0566702 -0.0385914 -0.16662 -0.149003 0 0 0 3.57498 -0.681251 -4.2829 0.01 
15 1 2 -0.0309392 -0.129195 0.0652456 -0.0489189 -0.186472 -0.154466 -0.223004 -0.457892 -0.419329 3.57498 -0.681251 -4.2829 0.01 
16 1 2 -0.0334621 -0.130242 0.073821 -0.0592463 -0.206324 -0.159929 0.193172 -0.86488 0.160888 3.57498 -0.681251 -4.2829 0.01 
17 1 2 -0.035985 -0.131289 0.0823965 -0.0695738 -0.226176 -0.165392 0 0 0 3.57498 -0.681251 -4.2829 0.01 
18 1 2 -0.0385078 -0.132337 0.0909719 -0.0799013 -0.246027 -0.170855 -0.130672 -0.0567378 -0.0788113 3.57498 -0.681251 -4.2829 0.01 
19 1 2 -0.0410307 -0.133384 0.0995474 -0.0902288 -0.265879 -0.176317 0 0 0 3.57498 -0.681251 -4.2829 0.01 
20 1 2 -0.0435536 -0.134431 0.108123 -0.100556 -0.285731 -0.18178 0.488973 1.06938 -0.218765 3.57498 -0.681251 -4.2829 0.01 
21 1 3 -0.0304519 -0.0379737 0.00989351 -0.00107192 -0.00455238 -0.0104604 -0.972861 -0.168979 0.403842 2.0398 -1.05797 1.52059 0.01 
22 1 3 -0.0334767 -0.0434054 0.016401 0.000302695 -0.0224259 -0.0247401 0 0 0 2.0398 -1.05797 1.52059 0.01 
23 1 3 -0.0365016 -0.048837 0.0229085 0.00167731 -0.0402994 -0.0390198 0 0 0 2.0398 -1.05797 1.52059 0.01 
24 1 3 -0.0395264 -0.0542687 0.029416 0.00305193 -0.0581729 -0.0532995 1.18812 0.0236613 -0.131385 2.0398 -1.05797 1.52059 0.01 
25 1 3 -0.0425512 -0.0597004 0.0359235 0.00442654 -0.0760464 -0.0675792 0 0 0 2.0398 -1.05797 1.52059 0.01 
26 1 3 -0.045576 -0.065132 0.0424309 0.00580116 -0.0939199 -0.0818589 0 0 0 2.0398 -1.05797 1.52059 0.01 
27 1 3 -0.0486009 -0.0705637 0.0489384 0.00717577 -0.111793 -0.0961386 0 0 0 2.0398 -1.05797 1.52059 0.01 
28 1 3 -0.0516257 -0.0759954 0.0554459 0.00855039 -0.129667 -0.110418 0.0726922 0.673174 0.763107 2.0398 -1.05797 1.52059 0.01 
29 1 3 -0.0546505 -0.081427 0.0619534 0.009925 -0.14754 -0.124698 -1.29172 -1.19372 -0.0427017 2.0398 -1.05797 1.52059 0.01 
30 1 3 -0.0576754 -0.0868587 0.0684609 0.0112996 -0.165414 -0.138978 0.640232 -0.0401834 -0.105685 2.0398 -1.05797 1.52059 0.01 
31 1 4 -0.0893316 0.116569 0.0107789 0.0592668 0.114433 -0.0241216 0 0 0 -5.86319 9.53094 15.4875 0.01 
32 1 4 -0.0913399 0.122101 0.0175879 0.0384831 0.123252 -0.0374167 0 0 0 -5.86319 9.53094 15.4875 0.01 
33 1 4 -0.0933482 0.127633 0.0243968 0.0176995 0.13207 -0.0507118 0 0 0 -5.86319 9.53094 15.4875 0.01 
34 1 4 -0.0953565 0.133165 0.0312058 -0.00308422 0.140889 -0.0640069 0 0 0 -5.86319 9.53094 15.4875 0.01 
35 1 4 -0.0973648 0.138697 0.0380147 -0.0238679 0.149707 -0.0773021 0 0 0 -5.86319 9.53094 15.4875 0.01 
36 1 4 -0.0993731 0.14423 0.0448237 -0.0446516 0.158526 -0.0905972 0 0 0 -5.86319 9.53094 15.4875 0.01 
37 1 4 -0.101381 0.149762 0.0516326 -0.0654353 0.167345 -0.103892 0 0 0 -5.86319 9.53094 15.4875 0.01 
38 1 4 -0.10339 0.155294 0.0584416 -0.0862189 0.176163 -0.117187 0.102011 0.177791 0.000127602 -5.86319 9.53094 15.4875 0.01 
39 1 4 -0.105398 0.160826 0.0652506 -0.107003 0.184982 -0.130483 0.57495 0.226143 0.36876 -5.86319 9.53094 15.4875 0.01 
40 1 4 -0.107406 0.166358 0.0720595 -0.127786 0.1938 -0.143778 -1.08813 0.471324 1.16608 -5.86319 9.53094 15.4875 0.01 
41 1 5 0.079452 -0.135449 0.00986466 9.97581e-05 -0.00220023 -0.013862 -0.318476 0.0393438 1.60585 0.526214 0.89554 1.85124 0.01 
42 1 5 0.0803217 -0.134536 0.0187759 0.00638994 -0.00527945 -0.0141604 0.360346 0.126864 -0.292094 0.526214 0.89554 1.85124 0.01 
43 1 5 0.0811914 -0.133623 0.0276871 0.0126801 -0.00835867 -0.0144588 0 0 0 0.526214 0.89554 1.85124 0.01 
44 1 5 0.0820611 -0.13271 0.0365984 0.0189703 -0.0114379 -0.0147572 0 0 0 0.526214 0.89554 1.85124 0.01 
45 1 5 0.0829307 -0.131797 0.0455096 0.0252605 -0.0145171 -0.0150556 0 0 0 0.526214 0.89554 1.85124 0.01 
46 1 5 0.0838004 -0.130884 0.0544208 0.0315507 -0.0175963 -0.015354 0 0 0 0.526214 0.89554 1.85124 0.01 
47 1 5 0.0846701 -0.129971 0.0633321 0.0378409 -0.0206755 -0.0156524 0 0 0 0.526214 0.89554 1.85124 0.01 
48 1 5 0.0855398 -0.129058 0.0722433 0.044131 -0.0237548 -0.0159508 0.0163252 -0.00855795 0.00517044 0.526214 0.89554 1.85124 0.01 
49 1 5 0.0864095 -0.128145 0.0811545 0.0504212 -0.026834 -0.0162492 0 0 0 0.526214 0.89554 1.85124 0.01 
50 1 5 0.0872792 -0.127232 0.0900658 0.0567114 -0.0299132 -0.0165476 -0.34924 0.00308095 -0.635413 0.526214 0.89554 1.85124 0.01 
51 1 6 0.188301 -0.0313984 0.0151671 0.164142 -0.142702 0.0772489 -0.0274772 -0.0656751 0.0178728 22.2072 8.65224 -10.4323 0.01 
52 1 6 0.18212 -0.0368118 0.0188395 0.139441 -0.15977 0.0105135 0 0 0 22.2072 8.65224 -10.4323 0.01 
53 1 6 0.175939 -0.0422253 0.0225119 0.114741 -0.176837 -0.056222 0 0 0 22.2072 8.65224 -10.4323 0.01 
54 1 6 0.169757 -0.0476387 0.0261842 0.0900399 -0.193905 -0.122957 0 0 0 22.2072 8.65224 -10.4323 0.01 
55 1 6 0.163576 -0.0530521 0.0298566 0.0653394 -0.210973 -0.189693 0 0 0 22.2072 8.65224 -10.4323 0.01 
56 1 6 0.157395 -0.0584656 0.033529 0.0406388 -0.228041 -0.256428 0 0 0 22.2072 8.65224 -10.4323 0.01 
57 1 6 0.151214 -0.063879 0.0372014 0.0159383 -0.245109 -0.323164 0 0 0 22.2072 8.65224 -10.4323 0.01 
58 1 6 0.145032 -0.0692925 0.0408737 -0.00876231 -0.262177 -0.389899 0 0 0 22.2072 8.65224 -10.4323 0.01 
59 1 6 0.138851 -0.0747059 0.0445461 -0.0334629 -0.279245 -0.456635 0 0 0 22.2072 8.65224 -10.4323 0.01 
60 1 6 0.13267 -0.0801193 0.0482185 -0.0581634 -0.296313 -0.52337 0 0 0 22.2072 8.65224 -10.4323 0.01 
61 1 7 -0.0388631 0.220958 0.0101846 -0.150539 -0.0982293 0.0560884 0 0 0 -10.1693 1.78142 -4.4406 0.01 
62 1 7 -0.0372756 0.224992 0.0180718 -0.118576 -0.025072 0.0122387 -0.428546 -0.384496 0.680489 -10.1693 1.78142 -4.4406 0.01 
63 1 7 -0.0356881 0.229026 0.0259589 -0.0866124 0.0480854 -0.0316109 0 0 0 -10.1693 1.78142 -4.4406 0.01 
64 1 7 -0.0341006 0.23306 0.0338461 -0.0546491 0.121243 -0.0754606 -0.183547 0.218272 -0.200152 -10.1693 1.78142 -4.4406 0.01 
65 1 7 -0.0325131 0.237094 0.0417333 -0.0226859 0.1944 -0.11931 -0.0881154 0.0801017 -0.0801915 -10.1693 1.78142 -4.4406 0.01 
66 1 7 -0.0309256 0.241128 0.0496205 0.00927729 0.267557 -0.16316 0 0 0 -10.1693 1.78142 -4.4406 0.01 
67 1 7 -0.0293381 0.245162 0.0575076 0.0412405 0.340715 -0.20701 0 0 0 -10.1693 1.78142 -4.4406 0.01 
68 1 7 -0.0277506 0.249195 0.0653948 0.0732037 0.413872 -0.250859 0.0845182 0.0315117 -0.134558 -10.1693 1.78142 -4.4406 0.01 
69 1 7 -0.0261631 0.253229 0.073282 0.105167 0.487029 -0.294709 0 0 0 -10.1693 1.78142 -4.4406 0.01 
70 1 7 -0.0245755 0.257263 0.0811692 0.13713 0.560187 -0.338559 -0.0250691 -0.0114981 -0.0130394 -10.1693 1.78142 -4.4406 0.01 
71 1 8 0.136375 -0.161338 0.099323 0.13663 -0.364853 -0.117328 0.545048 -0.483699 0.604701 1.63733 11.497 7.01504 0.01 
72 1 8 0.143068 -0.159602 0.105085 0.190695 -0.327342 -0.191425 0 0 0 1.63733 11.497 7.01504 0.01 
73 1 8 0.14976 -0.157866 0.110847 0.244759 -0.28983 -0.265522 -0.0441833 0.104451 -0.131802 1.63733 11.497 7.01504 0.01 
74 1 8 0.156452 -0.15613 0.116609 0.298824 -0.252318 -0.339619 0 0 0 1.63733 11.497 7.01504 0.01 
75 1 8 0.163144 -0.154393 0.122371 0.352889 -0.214806 -0.413716 0 0 0 1.63733 11.497 7.01504 0.01 
76 1 8 0.169836 -0.152657 0.128133 0.406953 -0.177295 -0.487813 0 0 0 1.63733 11.497 7.01504 0.01 
77 1 8 0.176529 -0.150921 0.133895 0.461018 -0.139783 -0.56191 0 0 0 1.63733 11.497 7.01504 0.01 
78 1 8 0.183221 -0.149184 0.139657 0.515083 -0.102271 -0.636007 0 0 0 1.63733 11.497 7.01504 0.01 
79 1 8 0.189913 -0.147448 0.145418 0.569147 -0.0647595 -0.710104 0 0 0 1.63733 11.497 7.01504 0.01 
80 1 8 0.196605 -0.145712 0.15118 0.623212 -0.0272478 -0.784201 0 0 0 1.63733 11.497 7.01504 0.01 
81 1 9 -0.12947 0.041922 0.0652742 -0.0850749 -0.103324 -0.078375 0.79649 -0.625769 1.29425 6.69944 -1.2536 9.10788 0.01 
82 1 9 -0.123159 0.0414279 0.0716718 -0.0885946 -0.0887059 -0.0737741 0 0 0 6.69944 -1.2536 9.10788 0.01 
83 1 9 -0.116848 0.0409338 0.0780694 -0.0921142 -0.0740881 -0.0691732 0 0 0 6.69944 -1.2536 9.10788 0.01 
84 1 9 -0.110537 0.0404397 0.084467 -0.0956339 -0.0594702 -0.0645723 0 0 0 6.69944 -1.2536 9.10788 0.01 
85 1 9 -0.104226 0.0399456 0.0908646 -0.0991535 -0.0448523 -0.0599714 0 0 0 6.69944 -1.2536 9.10788 0.01 
86 1 9 -0.0979156 0.0394514 0.0972622 -0.102673 -0.0302345 -0.0553704 0 0 0 6.69944 -1.2536 9.10788 0.01 
87 1 9 -0.0916048 0.0389573 0.10366 -0.106193 -0.0156166 -0.0507695 -0.985567 -0.180652 0.651995 6.69944 -1.2536 9.10788 0.01 
88 1 9 -0.0852939 0.0384632 0.110057 -0.109712 -0.000998765 -0.0461686 0 0 0 6.69944 -1.2536 9.10788 0.01 
89 1 9 -0.0789831 0.0379691 0.116455 -0.113232 0.0136191 -0.0415677 0 0 0 6.69944 -1.2536 9.10788 0.01 
90 1 9 -0.0726723 0.037475 0.122853 -0.116752 0.028237 -0.0369668 0.890362 -0.434331 -0.691079 6.69944 -1.2536 9.10788 0.01 
91 1 10 0.0630025 0.225449 0.104584 0.154521 0.419708 -0.107491 0.0514739 0.0974195 0.369818 2.23911 -7.93234 -6.06355 0.01 
92 1 10 0.0580172 0.228744 0.111313 0.121122 0.434868 -0.139658 0 0 0 2.23911 -7.93234 -6.06355 0.01 
93 1 10 0.053032 0.23204 0.118043 0.0877217 0.450029 -0.171824 0 0 0 2.23911 -7.93234 -6.06355 0.01 
94 1 10 0.0480467 0.235335 0.124773 0.0543219 0.465189 -0.20399 0 0 0 2.23911 -7.93234 -6.06355 0.01 
95 1 10 0.0430614 0.23863 0.131502 0.020922 0.480349 -0.236156 0 0 0 2.23911 -7.93234 -6.06355 0.01 
96 1 10 0.0380761 0.241926 0.138232 -0.0124778 0.495509 -0.268323 0 0 0 2.23911 -7.93234 -6.06355 0.01 
97 1 10 0.0330909 0.245221 0.144961 -0.0458777 0.510669 -0.300489 0 0 0 2.23911 -7.93234 -6.06355 0.01 
98 1 10 0.0281056 0.248517 0.151691 -0.0792776 0.52583 -0.332655 0 0 0 2.23911 -7.93234 -6.06355 0.01 
99 1 10 0.0231203 0.251812 0.158421 -0.112677 0.54099 -0.364821 0 0 0 2.23911 -7.93234 -6.06355 0.01 
100 1 10 0.018135 0.255107 0.16515 -0.146077 0.55615 -0.396988 0 0 0 2.23911 -7.93234 -6.06355 0.01 
101 1 11 -0.242006 -0.0812373 0.00993877 0.00392186 -0.0388533 0.0541844 -0.422595 -2.13962 -2.87903 4.33846 1.65501 -8.58739 0.01 
102 1 11 -0.241289 -0.0869807 0.0168306 -0.0339932 -0.0749161 0.028079 0 0 0 4.33846 1.65501 -8.58739 0.01 
103 1 11 -0.240571 -0.0927242 0.0237225 -0.0719083 -0.110979 0.00197363 -1.46652 1.45223 -0.212312 4.33846 1.65501 -8.58739 0.01 
104 1 11 -0.239854 -0.0984676 0.0306144 -0.109823 -0.147042 -0.0241318 2.70826 3.03518 6.30244 4.33846 1.65501 -8.58739 0.01 
105 1 11 -0.239136 -0.104211 0.0375062 -0.147738 -0.183105 -0.0502371 0 0 0 4.33846 1.65501 -8.58739 0.01 
106 1 11 -0.238418 -0.109954 0.0443981 -0.185654 -0.219167 -0.0763425 -0.208931 0.0659081 -0.0168825 4.33846 1.65501 -8.58739 0.01 
107 1 11 -0.237701 -0.115698 0.05129 -0.223569 -0.25523 -0.102448 0 0 0 4.33846 1.65501 -8.58739 0.01 
108 1 11 -0.236983 -0.121441 0.0581819 -0.261484 -0.291293 -0.128553 1.56914 -2.31272 -0.566037 4.33846 1.65501 -8.58739 0.01 
109 1 11 -0.236265 -0.127185 0.0650737 -0.299399 -0.327356 -0.154659 0 0 0 4.33846 1.65501 -8.58739 0.01 
110 1 11 -0.235548 -0.132928 0.0719656 -0.337314 -0.363419 -0.180764 -1.26329 -0.0862995 -0.519923 4.33846 1.65501 -8.58739 0.01 
111 1 12 0.117728 0.0471346 0.0531008 0.0384166 -0.0597058 -0.00943783 -0.269012 1.45145 1.73803 -1.25728 5.03573 7.09419 0.01 
112 1 12 0.118007 0.0504251 0.0614731 0.0572341 -0.0472005 -0.0149797 0 0 0 -1.25728 5.03573 7.09419 0.01 
113 1 12 0.118286 0.0537155 0.0698454 0.0760516 -0.0346951 -0.0205215 0.289684 0.374994 -0.551175 -1.25728 5.03573 7.09419 0.01 
114 1 12 0.118565 0.057006 0.0782177 0.0948691 -0.0221897 -0.0260634 0 0 0 -1.25728 5.03573 7.09419 0.01 
115 1 12 0.118844 0.0602964 0.08659 0.113687 -0.00968429 -0.0316052 -0.558761 -2.153 -0.834825 -1.25728 5.03573 7.09419 0.01 
116 1 12 0.119123 0.0635869 0.0949623 0.132504 0.0028211 -0.0371471 0 0 0 -1.25728 5.03573 7.09419 0.01 
117 1 12 0.119402 0.0668773 0.103335 0.151322 0.0153265 -0.0426889 0 0 0 -1.25728 5.03573 7.09419 0.01 
118 1 12 0.119681 0.0701678 0.111707 0.170139 0.0278319 -0.0482308 0 0 0 -1.25728 5.03573 7.09419 0.01 
119 1 12 0.11996 0.0734582 0.120079 0.188957 0.0403373 -0.0537727 0 0 0 -1.25728 5.03573 7.09419 0.01 
120 1 12 0.120239 0.0767487 0.128451 0.207774 0.0528427 -0.0593145 0.0952493 0.258708 -0.360177 -1.25728 5.03573 7.09419 0.01 
121 1 13 0.000491002 0.274503 0.0774943 0.0626277 0.54697 -0.383554 0 0 0 1.29705 4.90178 -1.1313 0.01 
122 1 13 -0.00364037 0.269595 0.0838066 0.0880167 0.543457 -0.369668 0 0 0 1.29705 4.90178 -1.1313 0.01 
123 1 13 -0.00777175 0.264687 0.0901188 0.113406 0.539943 -0.355783 0 0 0 1.29705 4.90178 -1.1313 0.01 
124 1 13 -0.0119031 0.25978 0.096431 0.138794 0.53643 -0.341898 0.0250691 0.0114981 0.0130394 1.29705 4.90178 -1.1313 0.01 
125 1 13 -0.0160345 0.254872 0.102743 0.164183 0.532917 -0.328012 0 0 0 1.29705 4.90178 -1.1313 0.01 
126 1 13 -0.0201659 0.249964 0.109056 0.189572 0.529403 -0.314127 0 0 0 1.29705 4.90178 -1.1313 0.01 
127 1 13 -0.0242972 0.245056 0.115368 0.214961 0.52589 -0.300242 0 0 0 1.29705 4.90178 -1.1313 0.01 
128 1 13 -0.0284286 0.240148 0.12168 0.24035 0.522376 -0.286357 0 0 0 1.29705 4.90178 -1.1313 0.01 
129 1 13 -0.03256 0.23524 0.127992 0.265739 0.518863 -0.272471 0 0 0 1.29705 4.90178 -1.1313 0.01 
130 1 13 -0.0366914 0.230332 0.134304 0.291128 0.515349 -0.258586 0 0 0 1.29705 4.90178 -1.1313 0.01 
131 1 14 -0.0482239 0.126844 0.00982966 -0.0116981 0.111601 -0.00586788 0.519087 0.0471273 -0.834301 0.812657 0.873925 10.9924 0.01 
132 1 14 -0.0461745 0.131793 0.0170621 -0.0597781 0.128252 -0.00363716 0.245161 -0.0988836 -0.572925 0.812657 0.873925 10.9924 0.01 
133 1 14 -0.044125 0.136742 0.0242945 -0.107858 0.144902 -0.00140643 -1.13458 -0.67449 2.92459 0.812657 0.873925 10.9924 0.01 
134 1 14 -0.0420756 0.141691 0.031527 -0.155938 0.161553 0.000824299 -0.202356 0.263202 -0.553589 0.812657 0.873925 10.9924 0.01 
135 1 14 -0.0400262 0.14664 0.0387594 -0.204018 0.178204 0.00305503 0 0 0 0.812657 0.873925 10.9924 0.01 
136 1 14 -0.0379768 0.151589 0.0459919 -0.252098 0.194854 0.00528575 0 0 0 0.812657 0.873925 10.9924 0.01 
137 1 14 -0.0359273 0.156538 0.0532243 -0.300178 0.211505 0.00751648 0 0 0 0.812657 0.873925 10.9924 0.01 
138 1 14 -0.0338779 0.161487 0.0604567 -0.348258 0.228156 0.00974721 0 0 0 0.812657 0.873925 10.9924 0.01 
139 1 14 -0.0318285 0.166436 0.0676892 -0.396338 0.244806 0.0119779 0 0 0 0.812657 0.873925 10.9924 0.01 
140 1 14 -0.0297791 0.171384 0.0749216 -0.444418 0.261457 0.0142087 0 0 0 0.812657 0.873925 10.9924 0.01 
141 1 15 -0.00787646 -0.0592829 0.00987952 -0.028217 0.0155694 -0.00072949 -0.455794 -0.127691 1.11995 -1.77271 -3.63351 8.65582 0.01 
142 1 15 -0.0115627 -0.0620287 0.0176173 -0.0325658 -0.00262068 -0.0092559 0 0 0 -1.77271 -3.63351 8.65582 0.01 
143 1 15 -0.0152488 -0.0647744 0.0253551 -0.0369145 -0.0208108 -0.0177823 0 0 0 -1.77271 -3.63351 8.65582 0.01 
144 1 15 -0.018935 -0.0675201 0.0330928 -0.0412632 -0.0390009 -0.0263087 0.00477885 -0.0800175 -0.058694 -1.77271 -3.63351 8.65582 0.01 
145 1 15 -0.0226212 -0.0702659 0.0408306 -0.045612 -0.057191 -0.0348351 -0.0109609 -0.0852135 -0.089353 -1.77271 -3.63351 8.65582 0.01 
146 1 15 -0.0263074 -0.0730116 0.0485683 -0.0499607 -0.0753812 -0.0433616 -0.0480427 -0.0817708 -0.110427 -1.77271 -3.63351 8.65582 0.01 
147 1 15 -0.0299936 -0.0757573 0.0563061 -0.0543094 -0.0935713 -0.051888 -0.0843038 -0.0845353 -0.11581 -1.77271 -3.63351 8.65582 0.01 
148 1 15 -0.0336798 -0.078503 0.0640439 -0.0586582 -0.111761 -0.0604144 -1.78569 -0.00153244 -0.948018 -1.77271 -3.63351 8.65582 0.01 
149 1 15 -0.037366 -0.0812488 0.0717816 -0.0630069 -0.129952 -0.0689408 -1.27336 1.35778 -1.23198 -1.77271 -3.63351 8.65582 0.01 
150 1 15 -0.0410521 -0.0839945 0.0795194 -0.0673556 -0.148142 -0.0774672 0 0 0 -1.77271 -3.63351 8.65582 0.01 
151 1 16 -0.0408801 0.179178 0.0107806 -0.0712875 -0.038074 0.090127 0 0 0 -6.52232 2.10591 0.668193 0.01 
152 1 16 -0.0391066 0.184849 0.0175405 -0.0608409 0.0072012 0.049405 0.0362754 -0.00399969 0.0155689 -6.52232 2.10591 0.668193 0.01 
153 1 16 -0.037333 0.19052 0.0243003 -0.0503944 0.0524764 0.00868305 -0.0033349 0.00578954 -0.00176652 -6.52232 2.10591 0.668193 0.01 
154 1 16 -0.0355595 0.196191 0.0310602 -0.0399479 0.0977517 -0.0320389 0.0345762 0.0517882 -0.0215865 -6.52232 2.10591 0.668193 0.01 
155 1 16 -0.0337859 0.201861 0.0378201 -0.0295014 0.143027 -0.0727608 -0.112346 -0.0476307 0.303471 -6.52232 2.10591 0.668193 0.01 
156 1 16 -0.0320124 0.207532 0.04458 -0.0190548 0.188302 -0.113483 -0.156186 -0.0833456 0.454541 -6.52232 2.10591 0.668193 0.01 
157 1 16 -0.0302388 0.213203 0.0513399 -0.00860831 0.233577 -0.154205 -0.0757427 -0.0522436 0.232418 -6.52232 2.10591 0.668193 0.01 
158 1 16 -0.0284653 0.218874 0.0580998 0.00183821 0.278853 -0.194927 0 0 0 -6.52232 2.10591 0.668193 0.01 
159 1 16 -0.0266917 0.224545 0.0648597 0.0122847 0.324128 -0.235649 0 0 0 -6.52232 2.10591 0.668193 0.01 
160 1 16 -0.0249182 0.230216 0.0716196 0.0227313 0.369403 -0.276371 0.112278 0.0260386 -0.422536 -6.52232 2.10591 0.668193 0.01 
161 1 17 0.0743944 0.089554 0.00976347 0.0135201 -0.00187687 0.00181283 0.530321 -0.0686287 2.99745 -0.550107 1.21508 -3.17452 0.01 
162 1 17 0.0777382 0.0877646 0.0179254 0.0177568 -0.00800206 -0.00126582 0 0 0 -0.550107 1.21508 -3.17452 0.01 
163 1 17 0.0810821 0.0859751 0.0260873 0.0219936 -0.0141272 -0.00434447 0 0 0 -0.550107 1.21508 -3.17452 0.01 
164 1 17 0.0844259 0.0841857 0.0342492 0.0262303 -0.0202524 -0.00742313 0 0 0 -0.550107 1.21508 -3.17452 0.01 
165 1 17 0.0877697 0.0823963 0.0424111 0.0304671 -0.0263776 -0.0105018 0 0 0 -0.550107 1.21508 -3.17452 0.01 
166 1 17 0.0911136 0.0806068 0.050573 0.0347038 -0.0325028 -0.0135804 -0.0445939 0.0245714 -0.000489727 -0.550107 1.21508 -3.17452 0.01 
167 1 17 0.0944574 0.0788174 0.0587349 0.0389406 -0.038628 -0.0166591 0.442208 -0.576667 -0.742956 -0.550107 1.21508 -3.17452 0.01 
168 1 17 0.0978013 0.077028 0.0668968 0.0431773 -0.0447532 -0.0197377 0.378782 -0.281858 -0.531385 -0.550107 1.21508 -3.17452 0.01 
169 1 17 0.101145 0.0752385 0.0750587 0.0474141 -0.0508784 -0.0228164 0 0 0 -0.550107 1.21508 -3.17452 0.01 
170 1 17 0.104489 0.0734491 0.0832206 0.0516508 -0.0570035 -0.025895 -1.21756 1.19557 -1.04153 -0.550107 1.21508 -3.17452 0.01 
171 1 18 -0.322679 -0.0445185 0.0171349 -0.482996 0.0324109 -0.977344 0 0 0 -2.77444 -3.84143 -7.79336 0.01 
172 1 18 -0.318986 -0.0424724 0.0250833 -0.497583 0.0256851 -0.968836 0 0 0 -2.77444 -3.84143 -7.79336 0.01 
173 1 18 -0.315294 -0.0404262 0.0330318 -0.51217 0.0189594 -0.960328 0 0 0 -2.77444 -3.84143 -7.79336 0.01 
174 1 18 -0.311601 -0.0383801 0.0409802 -0.526757 0.0122336 -0.951819 0 0 0 -2.77444 -3.84143 -7.79336 0.01 
175 1 18 -0.307908 -0.0363339 0.0489286 -0.541344 0.00550786 -0.943311 0 0 0 -2.77444 -3.84143 -7.79336 0.01 
176 1 18 -0.304216 -0.0342878 0.0568771 -0.555931 -0.0012179 -0.934803 0 0 0 -2.77444 -3.84143 -7.79336 0.01 
177 1 18 -0.300523 -0.0322417 0.0648255 -0.570518 -0.00794366 -0.926295 0 0 0 -2.77444 -3.84143 -7.79336 0.01 
178 1 18 -0.29683 -0.0301955 0.0727739 -0.585105 -0.0146694 -0.917787 0 0 0 -2.77444 -3.84143 -7.79336 0.01 
179 1 18 -0.293138 -0.0281494 0.0807224 -0.599692 -0.0213952 -0.909278 0 0 0 -2.77444 -3.84143 -7.79336 0.01 
180 1 18 -0.289445 -0.0261032 0.0886708 -0.614279 -0.0281209 -0.90077 -0.0898128 -0.450664 0.127228 -2.77444 -3.84143 -7.79336 0.01 
181 1 19 0.0174955 0.205877 0.0936072 -0.0158596 0.329913 -0.251195 0.0143293 0.124056 0.194575 -0.581829 -7.81788 7.54027 0.01 
182 1 19 0.0172467 0.198911 0.0992998 -0.00783428 0.331349 -0.249088 -0.199349 0.0415826 0.515636 -0.581829 -7.81788 7.54027 0.01 
183 1 19 0.0169978 0.191944 0.104992 0.000191061 0.332785 -0.24698 0 0 0 -0.581829 -7.81788 7.54027 0.01 
184 1 19 0.0167489 0.184978 0.110685 0.0082164 0.33422 -0.244872 0 0 0 -0.581829 -7.81788 7.54027 0.01 
185 1 19 0.0165 0.178011 0.116378 0.0162417 0.335656 -0.242765 0 0 0 -0.581829 -7.81788 7.54027 0.01 
186 1 19 0.0162512 0.171045 0.12207 0.0242671 0.337091 -0.240657 0 0 0 -0.581829 -7.81788 7.54027 0.01 
187 1 19 0.0160023 0.164078 0.127763 0.0322924 0.338527 -0.238549 0 0 0 -0.581829 -7.81788 7.54027 0.01 
188 1 19 0.0157534 0.157112 0.133455 0.0403178 0.339962 -0.236442 0 0 0 -0.581829 -7.81788 7.54027 0.01 
189 1 19 0.0155045 0.150145 0.139148 0.0483431 0.341398 -0.234334 0 0 0 -0.581829 -7.81788 7.54027 0.01 
190 1 19 0.0152557 0.143178 0.144841 0.0563684 0.342833 -0.232226 0.00546272 0.0228222 0.039101 -0.581829 -7.81788 7.54027 0.01 
191 1 20 -0.0097087 0.191938 0.010402 -0.0236781 0.0522836 0.0830926 0 0 0 -8.82885 0.619643 -0.133683 0.01 
192 1 20 -0.00705721 0.198463 0.0160051 -0.0193339 0.101398 0.0238422 0 0 0 -8.82885 0.619643 -0.133683 0.01 
193 1 20 -0.00440572 0.204988 0.0216082 -0.0149897 0.150513 -0.0354082 0.434569 -0.185177 0.477821 -8.82885 0.619643 -0.133683 0.01 
194 1 20 -0.00175423 0.211513 0.0272114 -0.0106455 0.199628 -0.0946586 0.123155 -0.112815 -0.0240188 -8.82885 0.619643 -0.133683 0.01 
195 1 20 0.000897258 0.218038 0.0328145 -0.00630124 0.248743 -0.153909 -0.119569 0.0280744 0.252905 -8.82885 0.619643 -0.133683 0.01 
196 1 20 0.00354875 0.224563 0.0384177 -0.00195703 0.297858 -0.213159 0 0 0 -8.82885 0.619643 -0.133683 0.01 
197 1 20 0.00620024 0.231088 0.0440208 0.00238719 0.346973 -0.27241 0 0 0 -8.82885 0.619643 -0.133683 0.01 
198 1 20 0.00885173 0.237613 0.0496239 0.0067314 0.396087 -0.33166 0 0 0 -8.82885 0.619643 -0.133683 0.01 
199 1 20 0.0115032 0.244138 0.0552271 0.0110756 0.445202 -0.390911 0 0 0 -8.82885 0.619643 -0.133683 0.01 
200 1 20 0.0141547 0.250663 0.0608302 0.0154198 0.494317 -0.450161 0 0 0 -8.82885 0.619643 -0.133683 0.01 
201 1 21 0.0128209 0.00591294 0.0109923 -0.163721 -0.0140296 0.014586 1.01637 0.219138 0.0560604 -1.51405 -2.76487 -4.0325 0.01 
202 1 21 0.0106725 0.0118243 0.0174297 -0.157682 0.00438037 -0.000304077 0 0 0 -1.51405 -2.76487 -4.0325 0.01 
203 1 21 0.00852408 0.0177357 0.0238671 -0.151643 0.0227903 -0.0151942 0 0 0 -1.51405 -2.76487 -4.0325 0.01 
204 1 21 0.00637569 0.023647 0.0303045 -0.145604 0.0412002 -0.0300843 0 0 0 -1.51405 -2.76487 -4.0325 0.01 
205 1 21 0.0042273 0.0295584 0.0367419 -0.139565 0.0596102 -0.0449744 -0.0406233 0.0212525 -0.0634753 -1.51405 -2.76487 -4.0325 0.01 
206 1 21 0.0020789 0.0354698 0.0431793 -0.133526 0.0780201 -0.0598645 0.744977 0.0420563 0.466179 -1.51405 -2.76487 -4.0325 0.01 
207 1 21 -6.94911e-05 0.0413811 0.0496167 -0.127487 0.09643 -0.0747546 1.38192 -0.0477678 0.919393 -1.51405 -2.76487 -4.0325 0.01 
208 1 21 -0.00221788 0.0472925 0.0560541 -0.121448 0.11484 -0.0896447 1.18462 0.0816296 1.19917 -1.51405 -2.76487 -4.0325 0.01 
209 1 21 -0.00436628 0.0532038 0.0624915 -0.115409 0.13325 -0.104535 0.69476 -0.0048854 0.617795 -1.51405 -2.76487 -4.0325 0.01 
210 1 21 -0.00651467 0.0591152 0.0689289 -0.10937 0.15166 -0.119425 -3.46945 0.905232 -2.5284 -1.51405 -2.76487 -4.0325 0.01 
211 1 22 0.0172475 0.259157 0.0796762 0.0704104 0.31384 -0.431043 0 0 0 -7.11897 -9.25512 5.54454 0.01 
212 1 22 0.0140367 0.253269 0.0856785 0.0475025 0.338768 -0.418846 0 0 0 -7.11897 -9.25512 5.54454 0.01 
213 1 22 0.0108258 0.247381 0.0916807 0.0245946 0.363695 -0.406649 0 0 0 -7.11897 -9.25512 5.54454 0.01 
214 1 22 0.00761498 0.241494 0.097683 0.00168667 0.388622 -0.394453 0 0 0 -7.11897 -9.25512 5.54454 0.01 
215 1 22 0.00440414 0.235606 0.103685 -0.0212212 0.41355 -0.382256 0 0 0 -7.11897 -9.25512 5.54454 0.01 
216 1 22 0.0011933 0.229719 0.109688 -0.0441291 0.438477 -0.370059 0.00127011 0.191771 0.225354 -7.11897 -9.25512 5.54454 0.01 
217 1 22 -0.00201754 0.223831 0.11569 -0.067037 0.463404 -0.357863 0 0 0 -7.11897 -9.25512 5.54454 0.01 
218 1 22 -0.00522838 0.217944 0.121692 -0.0899449 0.488332 -0.345666 0 0 0 -7.11897 -9.25512 5.54454 0.01 
219 1 22 -0.00843922 0.212056 0.127694 -0.112853 0.513259 -0.333469 0 0 0 -7.11897 -9.25512 5.54454 0.01 
220 1 22 -0.0116501 0.206169 0.133697 -0.135761 0.538186 -0.321273 0 0 0 -7.11897 -9.25512 5.54454 0.01 
221 1 23 0.249428 0.0511268 0.0958737 0.436878 0.0846232 -0.373684 0 0 0 -0.404854 -0.0110007 4.73997 0.01 
222 1 23 0.244304 0.0562435 0.101219 0.412566 0.062502 -0.375812 0 0 0 -0.404854 -0.0110007 4.73997 0.01 
223 1 23 0.239181 0.0613602 0.106564 0.388254 0.0403808 -0.37794 0 0 0 -0.404854 -0.0110007 4.73997 0.01 
224 1 23 0.234057 0.0664769 0.111909 0.363942 0.0182596 -0.380068 0 0 0 -0.404854 -0.0110007 4.73997 0.01 
225 1 23 0.228934 0.0715937 0.117254 0.339631 -0.00386159 -0.382196 0 0 0 -0.404854 -0.0110007 4.73997 0.01 
226 1 23 0.22381 0.0767104 0.122599 0.315319 -0.0259828 -0.384324 0 0 0 -0.404854 -0.0110007 4.73997 0.01 
227 1 23 0.218687 0.0818271 0.127944 0.291007 -0.048104 -0.386451 0 0 0 -0.404854 -0.0110007 4.73997 0.01 
228 1 23 0.213563 0.0869438 0.133289 0.266695 -0.0702252 -0.388579 0 0 0 -0.404854 -0.0110007 4.73997 0.01 
229 1 23 0.20844 0.0920605 0.138634 0.242383 -0.0923464 -0.390707 0 0 0 -0.404854 -0.0110007 4.73997 0.01 
230 1 23 0.203316 0.0971772 0.143979 0.218071 -0.114468 -0.392835 0 0 0 -0.404854 -0.0110007 4.73997 0.01 
231 1 24 0.167538 0.0194712 0.00998969 0.26445 -0.286499 0.0235308 -0.0724654 0.0888398 -0.229292 -2.68096 1.12135 4.22789 0.01 
232 1 24 0.174366 0.0180528 0.0156792 0.276827 -0.242379 0.0196773 0 0 0 -2.68096 1.12135 4.22789 0.01 
233 1 24 0.181194 0.0166344 0.0213687 0.289204 -0.198259 0.0158238 -0.721349 -0.345041 0.542244 -2.68096 1.12135 4.22789 0.01 
234 1 24 0.188021 0.015216 0.0270582 0.30158 -0.154139 0.0119703 0 0 0 -2.68096 1.12135 4.22789 0.01 
235 1 24 0.194849 0.0137975 0.0327477 0.313957 -0.110019 0.00811673 0 0 0 -2.68096 1.12135 4.22789 0.01 
236 1 24 0.201677 0.0123791 0.0384372 0.326334 -0.0658986 0.00426321 0 0 0 -2.68096 1.12135 4.22789 0.01 
237 1 24 0.208504 0.0109607 0.0441267 0.338711 -0.0217785 0.000409686 0 0 0 -2.68096 1.12135 4.22789 0.01 
238 1 24 0.215332 0.00954229 0.0498162 0.351088 0.0223417 -0.00344384 -0.167413 0.237534 0.12523 -2.68096 1.12135 4.22789 0.01 
239 1 24 0.22216 0.00812387 0.0555057 0.363464 0.0664618 -0.00729736 0.250875 0.668339 1.87354 -2.68096 1.12135 4.22789 0.01 
240 1 24 0.228988 0.00670546 0.0611952 0.375841 0.110582 -0.0111509 0.882251 -1.07882 -1.54956 -2.68096 1.12135 4.22789 0.01 
241 1 25 0.139896 -0.201405 0.0764771 0.157388 -0.420747 -0.433678 0 0 0 2.63902 10.4403 13.2874 0.01 
242 1 25 0.14116 -0.196832 0.0841252 0.17648 -0.424133 -0.43481 0 0 0 2.63902 10.4403 13.2874 0.01 
243 1 25 0.142424 -0.19226 0.0917733 0.195571 -0.427518 -0.435942 -0.111434 0.232346 0.0415844 2.63902 10.4403 13.2874 0.01 
244 1 25 0.143688 -0.187687 0.0994215 0.214663 -0.430904 -0.437073 0 0 0 2.63902 10.4403 13.2874 0.01 
245 1 25 0.144952 -0.183115 0.10707 0.233754 -0.43429 -0.438205 0 0 0 2.63902 10.4403 13.2874 0.01 
246 1 25 0.146217 -0.178542 0.114718 0.252846 -0.437675 -0.439336 0 0 0 2.63902 10.4403 13.2874 0.01 
247 1 25 0.147481 -0.17397 0.122366 0.271938 -0.441061 -0.440468 0.0441833 -0.104451 0.131802 2.63902 10.4403 13.2874 0.01 
248 1 25 0.148745 -0.169397 0.130014 0.291029 -0.444447 -0.441599 0 0 0 2.63902 10.4403 13.2874 0.01 
249 1 25 0.150009 -0.164825 0.137662 0.310121 -0.447832 -0.442731 0 0 0 2.63902 10.4403 13.2874 0.01 
250 1 25 0.151273 -0.160252 0.14531 0.329213 -0.451218 -0.443862 0 0 0 2.63902 10.4403 13.2874 0.01 
251 1 26 -0.00339732 -0.174038 0.0105518 0.145532 0.1253 0.0318822 0.0103532 -0.00684334 0.00353104 5.84047 7.94403 -11.2927 0.01 
252 1 26 -0.00267964 -0.180239 0.017035 0.127008 0.0793306 -0.0100363 0.00559856 -0.0033319 0.00218757 5.84047 7.94403 -11.2927 0.01 
253 1 26 -0.00196195 -0.18644 0.0235181 0.108484 0.0333612 -0.0519548 -0.00892349 0.0900099 0.165254 5.84047 7.94403 -11.2927 0.01 
254 1 26 -0.00124426 -0.192641 0.0300013 0.0899593 -0.0126083 -0.0938733 0.312436 0.0272598 -0.177978 5.84047 7.94403 -11.2927 0.01 
255 1 26 -0.000526569 -0.198842 0.0364845 0.0714349 -0.0585778 -0.135792 -0.010178 0.00123524 0.00548166 5.84047 7.94403 -11.2927 0.01 
256 1 26 0.00019112 -0.205043 0.0429677 0.0529106 -0.104547 -0.17771 -0.0146819 0.00268686 0.00826393 5.84047 7.94403 -11.2927 0.01 
257 1 26 0.000908808 -0.211244 0.0494509 0.0343862 -0.150517 -0.219629 -0.0183763 0.0043979 0.0106582 5.84047 7.94403 -11.2927 0.01 
258 1 26 0.0016265 -0.217445 0.0559341 0.0158618 -0.196486 -0.261547 -0.0207943 0.00602677 0.0123078 5.84047 7.94403 -11.2927 0.01 