ITEM: TIMESTEP
19000
ITEM: NUMBER OF ATOMS
6300
ITEM: BOX BOUNDS mm mm mm
-0.3 0.329732
-0.3 0.302577
0 0.5
ITEM: ATOMS id type mol x y z vx vy vz fx fy fz omegax omegay omegaz radius 
1 1 1 -0.115671 -0.11844 0.100063 -0.169191 -0.00617374 -0.0321907 0.850543 -1.22722 1.09964 2.65654 2.23972 -5.48801 0.01 
2 1 1 -0.115964 -0.119235 0.109023 -0.153481 -0.0283685 -0.0336443 0 0 0 2.65654 2.23972 -5.48801 0.01 
3 1 1 -0.116257 -0.120029 0.117983 -0.137772 -0.0505632 -0.0350978 0 0 0 2.65654 2.23972 -5.48801 0.01 
4 1 1 -0.11655 -0.120823 0.126943 -0.122063 -0.0727579 -0.0365514 0 0 0 2.65654 2.23972 -5.48801 0.01 
5 1 1 -0.116843 -0.121617 0.135903 -0.106353 -0.0949526 -0.038005 -0.182732 0.136528 0.0141546 2.65654 2.23972 -5.48801 0.01 
6 1 1 -0.117136 -0.122411 0.144863 -0.0906436 -0.117147 -0.0394585 -3.86676 1.78729 -0.0235485 2.65654 2.23972 -5.48801 0.01 
7 1 1 -0.117429 -0.123206 0.153823 -0.0749341 -0.139342 -0.0409121 0 0 0 2.65654 2.23972 -5.48801 0.01 
8 1 1 -0.117722 -0.124 0.162784 -0.0592246 -0.161537 -0.0423656 0 0 0 2.65654 2.23972 -5.48801 0.01 
9 1 1 -0.118015 -0.124794 0.171744 -0.0435151 -0.183732 -0.0438192 0 0 0 2.65654 2.23972 -5.48801 0.01 
10 1 1 -0.118308 -0.125588 0.180704 -0.0278057 -0.205926 -0.0452727 1.79909 -0.746792 -0.459865 2.65654 2.23972 -5.48801 0.01 
11 1 2 -0.0259603 -0.109167 0.0444309 0.188808 -0.0745458 -0.193507 -0.402406 1.73744 1.49935 -0.919336 -1.90177 14.0129 0.01 
12 1 2 -0.0271834 -0.109172 0.0533474 0.171913 -0.0834876 -0.195829 0 0 0 -0.919336 -1.90177 14.0129 0.01 
13 1 2 -0.0284065 -0.109176 0.0622639 0.155018 -0.0924293 -0.198151 0 0 0 -0.919336 -1.90177 14.0129 0.01 
14 1 2 -0.0296295 -0.109181 0.0711804 0.138122 -0.101371 -0.200473 0 0 0 -0.919336 -1.90177 14.0129 0.01 
15 1 2 -0.0308526 -0.109185 0.0800969 0.121227 -0.110313 -0.202795 0 0 0 -0.919336 -1.90177 14.0129 0.01 
16 1 2 -0.0320757 -0.109189 0.0890134 0.104331 -0.119255 -0.205117 0.905467 -2.5664 1.30284 -0.919336 -1.90177 14.0129 0.01 
17 1 2 -0.0332988 -0.109194 0.0979299 0.087436 -0.128196 -0.207439 0 0 0 -0.919336 -1.90177 14.0129 0.01 
18 1 2 -0.0345219 -0.109198 0.106846 0.0705406 -0.137138 -0.209761 0 0 0 -0.919336 -1.90177 14.0129 0.01 
19 1 2 -0.035745 -0.109203 0.115763 0.0536452 -0.14608 -0.212083 0 0 0 -0.919336 -1.90177 14.0129 0.01 
20 1 2 -0.0369681 -0.109207 0.124679 0.0367498 -0.155022 -0.214405 -1.11121 2.10725 -1.38097 -0.919336 -1.90177 14.0129 0.01 
21 1 3 -0.0278107 -0.0331962 0.0101121 -0.0163111 -0.143952 -0.0181489 0 0 0 1.19994 -1.75996 0.320179 0.01 
22 1 3 -0.030255 -0.0371831 0.0178017 -0.0285679 -0.153961 -0.0272348 0 0 0 1.19994 -1.75996 0.320179 0.01 
23 1 3 -0.0326993 -0.04117 0.0254913 -0.0408248 -0.163971 -0.0363207 0 0 0 1.19994 -1.75996 0.320179 0.01 
24 1 3 -0.0351436 -0.0451568 0.0331809 -0.0530816 -0.173981 -0.0454066 0 0 0 1.19994 -1.75996 0.320179 0.01 
25 1 3 -0.0375879 -0.0491437 0.0408705 -0.0653385 -0.18399 -0.0544924 0 0 0 1.19994 -1.75996 0.320179 0.01 
26 1 3 -0.0400322 -0.0531306 0.0485601 -0.0775953 -0.194 -0.0635783 0 0 0 1.19994 -1.75996 0.320179 0.01 
27 1 3 -0.0424765 -0.0571175 0.0562497 -0.0898522 -0.20401 -0.0726642 0 0 0 1.19994 -1.75996 0.320179 0.01 
28 1 3 -0.0449208 -0.0611044 0.0639393 -0.102109 -0.214019 -0.0817501 0 0 0 1.19994 -1.75996 0.320179 0.01 
29 1 3 -0.0473651 -0.0650913 0.0716289 -0.114366 -0.224029 -0.090836 -0.017686 -0.128092 -0.167868 1.19994 -1.75996 0.320179 0.01 
30 1 3 -0.0498094 -0.0690782 0.0793185 -0.126623 -0.234039 -0.0999219 -0.244955 1.31712 -0.737779 1.19994 -1.75996 0.320179 0.01 
31 1 4 -0.0880658 0.111604 0.00987938 -0.000623077 0.0348273 -0.00579803 -0.080634 0.0691206 1.22535 -2.53048 -0.566443 3.25172 0.01 
32 1 4 -0.0882091 0.113365 0.0187041 -0.0113509 0.056692 -0.0103376 0 0 0 -2.53048 -0.566443 3.25172 0.01 
33 1 4 -0.0883524 0.115127 0.0275288 -0.0220787 0.0785568 -0.0148772 0 0 0 -2.53048 -0.566443 3.25172 0.01 
34 1 4 -0.0884957 0.116889 0.0363535 -0.0328066 0.100422 -0.0194167 0 0 0 -2.53048 -0.566443 3.25172 0.01 
35 1 4 -0.088639 0.118651 0.0451782 -0.0435344 0.122286 -0.0239563 0 0 0 -2.53048 -0.566443 3.25172 0.01 
36 1 4 -0.0887823 0.120413 0.0540028 -0.0542623 0.144151 -0.0284959 0 0 0 -2.53048 -0.566443 3.25172 0.01 
37 1 4 -0.0889256 0.122175 0.0628275 -0.0649901 0.166016 -0.0330355 0 0 0 -2.53048 -0.566443 3.25172 0.01 
38 1 4 -0.0890689 0.123937 0.0716522 -0.0757179 0.18788 -0.037575 0 0 0 -2.53048 -0.566443 3.25172 0.01 
39 1 4 -0.0892122 0.125699 0.0804769 -0.0864458 0.209745 -0.0421146 0 0 0 -2.53048 -0.566443 3.25172 0.01 
40 1 4 -0.0893555 0.127461 0.0893016 -0.0971736 0.23161 -0.0466542 -0.153905 -0.089256 -0.268236 -2.53048 -0.566443 3.25172 0.01 
41 1 5 0.0782692 -0.134735 0.0107539 -0.00894373 -0.025556 -0.000802811 -0.996851 0.186896 0.0800852 -0.738484 0.884119 2.15945 0.01 
42 1 5 0.0787051 -0.133372 0.0196396 -0.00402959 -0.0180529 -0.0021942 0 0 0 -0.738484 0.884119 2.15945 0.01 
43 1 5 0.079141 -0.13201 0.0285252 0.000884554 -0.0105498 -0.00358558 0 0 0 -0.738484 0.884119 2.15945 0.01 
44 1 5 0.0795768 -0.130648 0.0374108 0.0057987 -0.00304666 -0.00497697 1.1659 -0.112375 0.467333 -0.738484 0.884119 2.15945 0.01 
45 1 5 0.0800127 -0.129286 0.0462964 0.0107128 0.00445646 -0.00636835 0 0 0 -0.738484 0.884119 2.15945 0.01 
46 1 5 0.0804486 -0.127923 0.055182 0.015627 0.0119596 -0.00775974 0 0 0 -0.738484 0.884119 2.15945 0.01 
47 1 5 0.0808844 -0.126561 0.0640676 0.0205411 0.0194627 -0.00915112 0 0 0 -0.738484 0.884119 2.15945 0.01 
48 1 5 0.0813203 -0.125199 0.0729533 0.0254553 0.0269658 -0.0105425 0 0 0 -0.738484 0.884119 2.15945 0.01 
49 1 5 0.0817562 -0.123836 0.0818389 0.0303694 0.0344689 -0.0119339 0 0 0 -0.738484 0.884119 2.15945 0.01 
50 1 5 0.082192 -0.122474 0.0907245 0.0352835 0.041972 -0.0133253 -0.43061 -0.126951 0.143068 -0.738484 0.884119 2.15945 0.01 
51 1 6 0.174978 -0.0384593 0.00991091 0.016062 -0.136685 0.0122592 -0.0592663 -0.0618475 0.472579 13.5807 1.91473 -30.5494 0.01 
52 1 6 0.171921 -0.0403247 0.0181677 -0.0251164 -0.155423 -0.00722099 0 0 0 13.5807 1.91473 -30.5494 0.01 
53 1 6 0.168864 -0.0421901 0.0264244 -0.0662947 -0.17416 -0.0267012 0 0 0 13.5807 1.91473 -30.5494 0.01 
54 1 6 0.165807 -0.0440556 0.0346811 -0.107473 -0.192897 -0.0461814 0 0 0 13.5807 1.91473 -30.5494 0.01 
55 1 6 0.162749 -0.045921 0.0429379 -0.148652 -0.211634 -0.0656616 0 0 0 13.5807 1.91473 -30.5494 0.01 
56 1 6 0.159692 -0.0477864 0.0511946 -0.18983 -0.230371 -0.0851418 0 0 0 13.5807 1.91473 -30.5494 0.01 
57 1 6 0.156635 -0.0496519 0.0594514 -0.231008 -0.249108 -0.104622 0 0 0 13.5807 1.91473 -30.5494 0.01 
58 1 6 0.153578 -0.0515173 0.0677081 -0.272187 -0.267845 -0.124102 0 0 0 13.5807 1.91473 -30.5494 0.01 
59 1 6 0.150521 -0.0533827 0.0759648 -0.313365 -0.286583 -0.143582 0 0 0 13.5807 1.91473 -30.5494 0.01 
60 1 6 0.147463 -0.0552481 0.0842216 -0.354543 -0.30532 -0.163063 0 0 0 13.5807 1.91473 -30.5494 0.01 
61 1 7 -0.0397043 0.216872 0.00985459 0.0384726 0.0205556 -0.00359119 0.193821 -0.0898299 1.54262 -2.53395 1.8629 -3.36418 0.01 
62 1 7 -0.0398334 0.216118 0.018822 0.0526412 0.0437132 -0.00143982 0 0 0 -2.53395 1.8629 -3.36418 0.01 
63 1 7 -0.0399626 0.215364 0.0277894 0.0668098 0.0668708 0.000711549 0 0 0 -2.53395 1.8629 -3.36418 0.01 
64 1 7 -0.0400918 0.21461 0.0367569 0.0809784 0.0900284 0.00286292 0 0 0 -2.53395 1.8629 -3.36418 0.01 
65 1 7 -0.0402209 0.213856 0.0457243 0.095147 0.113186 0.00501429 0 0 0 -2.53395 1.8629 -3.36418 0.01 
66 1 7 -0.0403501 0.213102 0.0546917 0.109316 0.136344 0.00716566 0.0917489 -0.10782 -0.0623129 -2.53395 1.8629 -3.36418 0.01 
67 1 7 -0.0404793 0.212348 0.0636591 0.123484 0.159501 0.00931703 -0.401392 0.102853 -0.156796 -2.53395 1.8629 -3.36418 0.01 
68 1 7 -0.0406084 0.211594 0.0726266 0.137653 0.182659 0.0114684 0 0 0 -2.53395 1.8629 -3.36418 0.01 
69 1 7 -0.0407376 0.21084 0.081594 0.151821 0.205816 0.0136198 0 0 0 -2.53395 1.8629 -3.36418 0.01 
70 1 7 -0.0408668 0.210085 0.0905614 0.16599 0.228974 0.0157711 0.492542 0.133171 -0.195638 -2.53395 1.8629 -3.36418 0.01 
71 1 8 0.129012 -0.136495 0.107978 0.0392489 -0.106864 -0.0513185 0.25795 0.216044 0.566863 -0.557449 2.67414 -4.55686 0.01 
72 1 8 0.130617 -0.136262 0.116831 0.0639806 -0.109242 -0.0557397 0 0 0 -0.557449 2.67414 -4.55686 0.01 
73 1 8 0.132222 -0.13603 0.125684 0.0887123 -0.11162 -0.0601609 0 0 0 -0.557449 2.67414 -4.55686 0.01 
74 1 8 0.133827 -0.135798 0.134536 0.113444 -0.113999 -0.0645821 0 0 0 -0.557449 2.67414 -4.55686 0.01 
75 1 8 0.135432 -0.135566 0.143389 0.138176 -0.116377 -0.0690034 0 0 0 -0.557449 2.67414 -4.55686 0.01 
76 1 8 0.137037 -0.135333 0.152242 0.162907 -0.118756 -0.0734246 0 0 0 -0.557449 2.67414 -4.55686 0.01 
77 1 8 0.138642 -0.135101 0.161094 0.187639 -0.121134 -0.0778458 0 0 0 -0.557449 2.67414 -4.55686 0.01 
78 1 8 0.140247 -0.134869 0.169947 0.212371 -0.123512 -0.082267 0 0 0 -0.557449 2.67414 -4.55686 0.01 
79 1 8 0.141852 -0.134637 0.1788 0.237102 -0.125891 -0.0866883 0 0 0 -0.557449 2.67414 -4.55686 0.01 
80 1 8 0.143456 -0.134404 0.187653 0.261834 -0.128269 -0.0911095 0 0 0 -0.557449 2.67414 -4.55686 0.01 
81 1 9 -0.120984 0.0301061 0.105525 -0.254928 0.0261302 -0.0671544 0.480402 2.49022 2.81878 -3.1764 7.91774 -7.54792 0.01 
82 1 9 -0.117866 0.029083 0.113906 -0.196297 0.0292161 -0.0885913 0 0 0 -3.1764 7.91774 -7.54792 0.01 
83 1 9 -0.114748 0.0280598 0.122286 -0.137665 0.0323021 -0.110028 0 0 0 -3.1764 7.91774 -7.54792 0.01 
84 1 9 -0.11163 0.0270367 0.130666 -0.0790334 0.035388 -0.131465 0 0 0 -3.1764 7.91774 -7.54792 0.01 
85 1 9 -0.108512 0.0260135 0.139047 -0.0204019 0.038474 -0.152902 0 0 0 -3.1764 7.91774 -7.54792 0.01 
86 1 9 -0.105395 0.0249904 0.147427 0.0382297 0.0415599 -0.174339 0 0 0 -3.1764 7.91774 -7.54792 0.01 
87 1 9 -0.102277 0.0239672 0.155808 0.0968613 0.0446459 -0.195776 0 0 0 -3.1764 7.91774 -7.54792 0.01 
88 1 9 -0.0991587 0.0229441 0.164188 0.155493 0.0477318 -0.217212 0 0 0 -3.1764 7.91774 -7.54792 0.01 
89 1 9 -0.0960408 0.021921 0.172569 0.214124 0.0508178 -0.238649 0 0 0 -3.1764 7.91774 -7.54792 0.01 
90 1 9 -0.0929229 0.0208978 0.180949 0.272756 0.0539037 -0.260086 0 0 0 -3.1764 7.91774 -7.54792 0.01 
91 1 10 0.0624664 0.200597 0.110001 0.0085429 0.119856 -0.0342198 -0.038347 0.0201243 0.880949 -1.01622 -2.06666 3.32392 0.01 
92 1 10 0.060558 0.201615 0.118738 -0.0128936 0.12239 -0.0391977 0 0 0 -1.01622 -2.06666 3.32392 0.01 
93 1 10 0.0586496 0.202632 0.127474 -0.03433 0.124925 -0.0441756 0 0 0 -1.01622 -2.06666 3.32392 0.01 
94 1 10 0.0567411 0.203649 0.13621 -0.0557665 0.127459 -0.0491535 0 0 0 -1.01622 -2.06666 3.32392 0.01 
95 1 10 0.0548327 0.204667 0.144946 -0.0772029 0.129994 -0.0541313 0 0 0 -1.01622 -2.06666 3.32392 0.01 
96 1 10 0.0529243 0.205684 0.153683 -0.0986394 0.132528 -0.0591092 0 0 0 -1.01622 -2.06666 3.32392 0.01 
97 1 10 0.0510159 0.206701 0.162419 -0.120076 0.135063 -0.0640871 0 0 0 -1.01622 -2.06666 3.32392 0.01 
98 1 10 0.0491075 0.207718 0.171155 -0.141512 0.137597 -0.0690649 0 0 0 -1.01622 -2.06666 3.32392 0.01 
99 1 10 0.047199 0.208736 0.179892 -0.162949 0.140132 -0.0740428 0.0480207 0.0468085 -0.0077809 -1.01622 -2.06666 3.32392 0.01 
100 1 10 0.0452906 0.209753 0.188628 -0.184385 0.142667 -0.0790207 0 0 0 -1.01622 -2.06666 3.32392 0.01 
101 1 11 -0.216234 -0.0959887 0.061345 -0.315358 -0.0240197 -0.467695 0 0 0 3.29582 2.17061 7.36624 0.01 
102 1 11 -0.214303 -0.0966112 0.0701133 -0.29174 -0.038693 -0.473938 0 0 0 3.29582 2.17061 7.36624 0.01 
103 1 11 -0.212371 -0.0972337 0.0788816 -0.268122 -0.0533663 -0.480182 0 0 0 3.29582 2.17061 7.36624 0.01 
104 1 11 -0.21044 -0.0978561 0.0876499 -0.244505 -0.0680396 -0.486425 0 0 0 3.29582 2.17061 7.36624 0.01 
105 1 11 -0.208509 -0.0984786 0.0964182 -0.220887 -0.0827129 -0.492669 0 0 0 3.29582 2.17061 7.36624 0.01 
106 1 11 -0.206578 -0.0991011 0.105186 -0.197269 -0.0973862 -0.498912 0 0 0 3.29582 2.17061 7.36624 0.01 
107 1 11 -0.204647 -0.0997236 0.113955 -0.173651 -0.112059 -0.505155 0 0 0 3.29582 2.17061 7.36624 0.01 
108 1 11 -0.202716 -0.100346 0.122723 -0.150033 -0.126733 -0.511399 0 0 0 3.29582 2.17061 7.36624 0.01 
109 1 11 -0.200784 -0.100969 0.131491 -0.126415 -0.141406 -0.517642 0 0 0 3.29582 2.17061 7.36624 0.01 
110 1 11 -0.198853 -0.101591 0.14026 -0.102798 -0.156079 -0.523885 0 0 0 3.29582 2.17061 7.36624 0.01 
111 1 12 0.0958183 0.0536152 0.10424 0.124561 -0.0180369 -0.271137 0.178315 0.324212 0.0868577 -4.77674 -1.81112 -9.07676 0.01 
112 1 12 0.0982552 0.0551141 0.112774 0.122713 0.000604589 -0.273884 0 0 0 -4.77674 -1.81112 -9.07676 0.01 
113 1 12 0.100692 0.0566131 0.121307 0.120864 0.0192461 -0.276631 0 0 0 -4.77674 -1.81112 -9.07676 0.01 
114 1 12 0.103129 0.0581121 0.12984 0.119015 0.0378876 -0.279377 0 0 0 -4.77674 -1.81112 -9.07676 0.01 
115 1 12 0.105566 0.0596111 0.138373 0.117167 0.0565291 -0.282124 0 0 0 -4.77674 -1.81112 -9.07676 0.01 
116 1 12 0.108003 0.06111 0.146906 0.115318 0.0751706 -0.284871 0 0 0 -4.77674 -1.81112 -9.07676 0.01 
117 1 12 0.11044 0.062609 0.155439 0.113469 0.093812 -0.287618 0 0 0 -4.77674 -1.81112 -9.07676 0.01 
118 1 12 0.112877 0.064108 0.163972 0.11162 0.112454 -0.290364 0 0 0 -4.77674 -1.81112 -9.07676 0.01 
119 1 12 0.115313 0.065607 0.172506 0.109772 0.131095 -0.293111 0 0 0 -4.77674 -1.81112 -9.07676 0.01 
120 1 12 0.11775 0.067106 0.181039 0.107923 0.149737 -0.295858 0 0 0 -4.77674 -1.81112 -9.07676 0.01 
121 1 13 -0.0124686 0.230156 0.103988 0.140246 0.246671 -0.150219 -0.166695 0.276549 1.27388 1.61373 -7.93288 7.74952 0.01 
122 1 13 -0.0144291 0.227326 0.112304 0.0962048 0.218059 -0.170338 -0.151108 -0.191454 -0.293536 1.61373 -7.93288 7.74952 0.01 
123 1 13 -0.0163896 0.224497 0.120619 0.0521636 0.189446 -0.190456 0 0 0 1.61373 -7.93288 7.74952 0.01 
124 1 13 -0.0183502 0.221668 0.128935 0.00812243 0.160833 -0.210575 0 0 0 1.61373 -7.93288 7.74952 0.01 
125 1 13 -0.0203107 0.218838 0.137251 -0.0359188 0.132221 -0.230693 0 0 0 1.61373 -7.93288 7.74952 0.01 
126 1 13 -0.0222713 0.216009 0.145567 -0.07996 0.103608 -0.250812 0 0 0 1.61373 -7.93288 7.74952 0.01 
127 1 13 -0.0242318 0.21318 0.153882 -0.124001 0.0749959 -0.27093 0 0 0 1.61373 -7.93288 7.74952 0.01 
128 1 13 -0.0261923 0.21035 0.162198 -0.168042 0.0463834 -0.291049 0 0 0 1.61373 -7.93288 7.74952 0.01 
129 1 13 -0.0281529 0.207521 0.170514 -0.212084 0.0177708 -0.311168 0 0 0 1.61373 -7.93288 7.74952 0.01 
130 1 13 -0.0301134 0.204691 0.178829 -0.256125 -0.0108417 -0.331286 0.0663964 0.65604 -0.547314 1.61373 -7.93288 7.74952 0.01 
131 1 14 -0.0461661 0.121419 0.00974193 -0.00626394 -0.0027807 -0.00208086 0.827129 0.974197 3.5183 -1.40734 0.871701 -1.45757 0.01 
132 1 14 -0.0446213 0.122993 0.0184676 0.0036361 0.00724767 -0.00564228 0 0 0 -1.40734 0.871701 -1.45757 0.01 
133 1 14 -0.0430765 0.124567 0.0271932 0.0135361 0.017276 -0.0092037 0 0 0 -1.40734 0.871701 -1.45757 0.01 
134 1 14 -0.0415317 0.12614 0.0359189 0.0234362 0.0273044 -0.0127651 0 0 0 -1.40734 0.871701 -1.45757 0.01 
135 1 14 -0.039987 0.127714 0.0446445 0.0333362 0.0373328 -0.0163265 0 0 0 -1.40734 0.871701 -1.45757 0.01 
136 1 14 -0.0384422 0.129288 0.0533702 0.0432362 0.0473612 -0.019888 0 0 0 -1.40734 0.871701 -1.45757 0.01 
137 1 14 -0.0368974 0.130862 0.0620958 0.0531363 0.0573895 -0.0234494 0 0 0 -1.40734 0.871701 -1.45757 0.01 
138 1 14 -0.0353526 0.132435 0.0708215 0.0630363 0.0674179 -0.0270108 0 0 0 -1.40734 0.871701 -1.45757 0.01 
139 1 14 -0.0338079 0.134009 0.0795471 0.0729363 0.0774463 -0.0305722 0 0 0 -1.40734 0.871701 -1.45757 0.01 
140 1 14 -0.0322631 0.135583 0.0882728 0.0828364 0.0874746 -0.0341336 -0.0687961 -0.0018186 -1.83527 -1.40734 0.871701 -1.45757 0.01 
141 1 15 -0.00588432 -0.0658904 0.0170579 0.187709 0.146417 -0.171141 0 0 0 3.74937 -6.21988 -8.0685 0.01 
142 1 15 -0.00721053 -0.066398 0.0259452 0.128335 0.123795 -0.181294 0 0 0 3.74937 -6.21988 -8.0685 0.01 
143 1 15 -0.00853675 -0.0669057 0.0348325 0.0689609 0.101174 -0.191446 0 0 0 3.74937 -6.21988 -8.0685 0.01 
144 1 15 -0.00986296 -0.0674134 0.0437197 0.00958696 0.0785534 -0.201598 0 0 0 3.74937 -6.21988 -8.0685 0.01 
145 1 15 -0.0111892 -0.0679211 0.052607 -0.049787 0.0559324 -0.211751 0 0 0 3.74937 -6.21988 -8.0685 0.01 
146 1 15 -0.0125154 -0.0684287 0.0614942 -0.109161 0.0333113 -0.221903 0 0 0 3.74937 -6.21988 -8.0685 0.01 
147 1 15 -0.0138416 -0.0689364 0.0703815 -0.168535 0.0106903 -0.232055 0 0 0 3.74937 -6.21988 -8.0685 0.01 
148 1 15 -0.0151678 -0.0694441 0.0792688 -0.227909 -0.0119307 -0.242208 0 0 0 3.74937 -6.21988 -8.0685 0.01 
149 1 15 -0.016494 -0.0699518 0.088156 -0.287283 -0.0345518 -0.25236 0 0 0 3.74937 -6.21988 -8.0685 0.01 
150 1 15 -0.0178202 -0.0704595 0.0970433 -0.346657 -0.0571728 -0.262513 0 0 0 3.74937 -6.21988 -8.0685 0.01 
151 1 16 -0.0377975 0.177098 0.0128907 -0.0191769 0.0346782 0.0817252 0 0 0 -1.71413 1.18227 -1.77198 0.01 
152 1 16 -0.0375153 0.178496 0.021777 -0.00619389 0.0494104 0.0789954 0 0 0 -1.71413 1.18227 -1.77198 0.01 
153 1 16 -0.0372331 0.179894 0.0306633 0.00678914 0.0641427 0.0762657 0 0 0 -1.71413 1.18227 -1.77198 0.01 
154 1 16 -0.0369509 0.181291 0.0395496 0.0197722 0.0788749 0.0735359 0 0 0 -1.71413 1.18227 -1.77198 0.01 
155 1 16 -0.0366688 0.182689 0.0484359 0.0327552 0.0936071 0.0708062 0 0 0 -1.71413 1.18227 -1.77198 0.01 
156 1 16 -0.0363866 0.184087 0.0573222 0.0457382 0.108339 0.0680764 0 0 0 -1.71413 1.18227 -1.77198 0.01 
157 1 16 -0.0361044 0.185485 0.0662085 0.0587212 0.123072 0.0653467 0 0 0 -1.71413 1.18227 -1.77198 0.01 
158 1 16 -0.0358222 0.186883 0.0750948 0.0717043 0.137804 0.0626169 0 0 0 -1.71413 1.18227 -1.77198 0.01 
159 1 16 -0.03554 0.188281 0.0839811 0.0846873 0.152536 0.0598871 0 0 0 -1.71413 1.18227 -1.77198 0.01 
160 1 16 -0.0352578 0.189679 0.0928674 0.0976703 0.167268 0.0571574 0.137897 -0.0587154 -0.0521704 -1.71413 1.18227 -1.77198 0.01 
161 1 17 0.0728439 0.092171 0.00987412 0.0215948 -0.0122983 -0.0121726 0.163407 0.362617 1.43063 0.924705 2.59719 -2.42197 0.01 
162 1 17 0.0737099 0.0910495 0.0187619 0.0419617 -0.0226143 -0.0154588 0 0 0 0.924705 2.59719 -2.42197 0.01 
163 1 17 0.0745759 0.089928 0.0276496 0.0623285 -0.0329302 -0.018745 0 0 0 0.924705 2.59719 -2.42197 0.01 
164 1 17 0.0754418 0.0888064 0.0365374 0.0826954 -0.0432461 -0.0220312 0 0 0 0.924705 2.59719 -2.42197 0.01 
165 1 17 0.0763078 0.0876849 0.0454252 0.103062 -0.053562 -0.0253174 0 0 0 0.924705 2.59719 -2.42197 0.01 
166 1 17 0.0771738 0.0865633 0.0543129 0.123429 -0.0638779 -0.0286036 0 0 0 0.924705 2.59719 -2.42197 0.01 
167 1 17 0.0780398 0.0854418 0.0632007 0.143796 -0.0741938 -0.0318897 0 0 0 0.924705 2.59719 -2.42197 0.01 
168 1 17 0.0789057 0.0843203 0.0720884 0.164163 -0.0845097 -0.0351759 0 0 0 0.924705 2.59719 -2.42197 0.01 
169 1 17 0.0797717 0.0831987 0.0809762 0.18453 -0.0948256 -0.0384621 0 0 0 0.924705 2.59719 -2.42197 0.01 
170 1 17 0.0806377 0.0820772 0.0898639 0.204896 -0.105142 -0.0417483 0.0945687 0.617205 -0.224946 0.924705 2.59719 -2.42197 0.01 
171 1 18 -0.265216 -0.0457928 0.0814571 -0.448915 0.0383472 -0.520346 0 0 0 7.5649 11.3115 18.8556 0.01 
172 1 18 -0.261724 -0.0440932 0.0895758 -0.389127 0.042784 -0.546995 0 0 0 7.5649 11.3115 18.8556 0.01 
173 1 18 -0.258231 -0.0423937 0.0976945 -0.329338 0.0472207 -0.573644 0 0 0 7.5649 11.3115 18.8556 0.01 
174 1 18 -0.254739 -0.0406941 0.105813 -0.269549 0.0516574 -0.600293 0 0 0 7.5649 11.3115 18.8556 0.01 
175 1 18 -0.251246 -0.0389946 0.113932 -0.209761 0.0560942 -0.626942 0 0 0 7.5649 11.3115 18.8556 0.01 
176 1 18 -0.247754 -0.0372951 0.122051 -0.149972 0.0605309 -0.65359 0 0 0 7.5649 11.3115 18.8556 0.01 
177 1 18 -0.244261 -0.0355955 0.130169 -0.0901833 0.0649676 -0.680239 0 0 0 7.5649 11.3115 18.8556 0.01 
178 1 18 -0.240769 -0.033896 0.138288 -0.0303946 0.0694044 -0.706888 0 0 0 7.5649 11.3115 18.8556 0.01 
179 1 18 -0.237276 -0.0321964 0.146407 0.0293941 0.0738411 -0.733537 0 0 0 7.5649 11.3115 18.8556 0.01 
180 1 18 -0.233783 -0.0304969 0.154526 0.0891827 0.0782778 -0.760186 -0.978383 1.53201 -0.46859 7.5649 11.3115 18.8556 0.01 
181 1 19 0.00872629 0.176248 0.110095 0.322732 0.157859 -0.0220713 0 0 0 3.1919 -10.1113 10.8067 0.01 
182 1 19 0.00873355 0.173828 0.118764 0.261241 0.130269 -0.029724 0 0 0 3.1919 -10.1113 10.8067 0.01 
183 1 19 0.0087408 0.171407 0.127432 0.19975 0.102678 -0.0373767 0 0 0 3.1919 -10.1113 10.8067 0.01 
184 1 19 0.00874805 0.168986 0.1361 0.138259 0.075088 -0.0450295 -0.942301 0.101468 0.601135 3.1919 -10.1113 10.8067 0.01 
185 1 19 0.00875531 0.166566 0.144769 0.0767685 0.0474977 -0.0526822 -1.02794 0.492019 0.292939 3.1919 -10.1113 10.8067 0.01 
186 1 19 0.00876256 0.164145 0.153437 0.0152776 0.0199074 -0.060335 0.450497 0.157935 -0.0741616 3.1919 -10.1113 10.8067 0.01 
187 1 19 0.00876982 0.161725 0.162106 -0.0462132 -0.00768288 -0.0679877 0.897986 -0.0239644 -0.0674804 3.1919 -10.1113 10.8067 0.01 
188 1 19 0.00877707 0.159304 0.170774 -0.107704 -0.0352732 -0.0756405 0.685192 -0.0848141 -0.134577 3.1919 -10.1113 10.8067 0.01 
189 1 19 0.00878432 0.156884 0.179442 -0.169195 -0.0628634 -0.0832932 0 0 0 3.1919 -10.1113 10.8067 0.01 
190 1 19 0.00879158 0.154463 0.188111 -0.230686 -0.0904537 -0.090946 0 0 0 3.1919 -10.1113 10.8067 0.01 
191 1 20 -0.00632379 0.189008 0.00992519 0.0268286 0.0265193 0.000715239 0.226481 0.135414 0.527752 -3.35275 2.70943 5.20562 0.01 
192 1 20 -0.00569633 0.191003 0.0186789 0.0401617 0.0591345 -0.00767298 0 0 0 -3.35275 2.70943 5.20562 0.01 
193 1 20 -0.00506887 0.192998 0.0274326 0.0534949 0.0917496 -0.0160612 0 0 0 -3.35275 2.70943 5.20562 0.01 
194 1 20 -0.00444142 0.194993 0.0361862 0.066828 0.124365 -0.0244494 0 0 0 -3.35275 2.70943 5.20562 0.01 
195 1 20 -0.00381396 0.196988 0.0449399 0.0801612 0.15698 -0.0328376 0 0 0 -3.35275 2.70943 5.20562 0.01 
196 1 20 -0.00318651 0.198983 0.0536936 0.0934944 0.189595 -0.0412259 0 0 0 -3.35275 2.70943 5.20562 0.01 
197 1 20 -0.00255905 0.200977 0.0624473 0.106828 0.22221 -0.0496141 0 0 0 -3.35275 2.70943 5.20562 0.01 
198 1 20 -0.0019316 0.202972 0.071201 0.120161 0.254826 -0.0580023 0 0 0 -3.35275 2.70943 5.20562 0.01 
199 1 20 -0.00130414 0.204967 0.0799546 0.133494 0.287441 -0.0663905 0 0 0 -3.35275 2.70943 5.20562 0.01 
200 1 20 -0.000676685 0.206962 0.0887083 0.146827 0.320056 -0.0747787 0.0822875 -0.0355187 0.0102875 -3.35275 2.70943 5.20562 0.01 
201 1 21 0.0182254 0.00597263 0.0101777 0.00656133 -0.0152697 0.00803245 0 0 0 -3.14474 -0.00445552 1.12186 0.01 
202 1 21 0.0175128 0.00859198 0.0187586 0.00358455 0.0109154 -0.000207903 -2.02359e-05 -0.0202713 0.0267508 -3.14474 -0.00445552 1.12186 0.01 
203 1 21 0.0168002 0.0112113 0.0273394 0.000607767 0.0371005 -0.00844826 -0.00136718 -0.0143543 0.0186509 -3.14474 -0.00445552 1.12186 0.01 
204 1 21 0.0160876 0.0138307 0.0359203 -0.00236901 0.0632857 -0.0166886 -0.00160512 -0.00878877 0.011117 -3.14474 -0.00445552 1.12186 0.01 
205 1 21 0.015375 0.01645 0.0445012 -0.00534579 0.0894708 -0.024929 -0.000943106 -0.00363251 0.00443302 -3.14474 -0.00445552 1.12186 0.01 
206 1 21 0.0146623 0.0190694 0.053082 -0.00832257 0.115656 -0.0331693 -0.000383725 0.0015007 -7.49675e-05 -3.14474 -0.00445552 1.12186 0.01 
207 1 21 0.0139497 0.0216887 0.0616629 -0.0112994 0.141841 -0.0414097 -0.00210399 0.00716495 -0.00051848 -3.14474 -0.00445552 1.12186 0.01 
208 1 21 0.0132371 0.0243081 0.0702437 -0.0142761 0.168026 -0.04965 -0.00354071 0.0108495 -0.00103968 -3.14474 -0.00445552 1.12186 0.01 
209 1 21 0.0125245 0.0269274 0.0788246 -0.0172529 0.194211 -0.0578904 -0.00406036 0.0114657 -0.0013691 -3.14474 -0.00445552 1.12186 0.01 
210 1 21 0.0118119 0.0295468 0.0874055 -0.0202297 0.220396 -0.0661307 0.0308135 0.13019 -0.534327 -3.14474 -0.00445552 1.12186 0.01 
211 1 22 0.00573213 0.220203 0.104337 0.116541 0.167174 -0.112051 0 0 0 1.43371 -4.49309 4.67026 0.01 
212 1 22 0.00411074 0.215914 0.112082 0.101774 0.148498 -0.125485 0 0 0 1.43371 -4.49309 4.67026 0.01 
213 1 22 0.00248935 0.211626 0.119826 0.0870065 0.129822 -0.138919 0 0 0 1.43371 -4.49309 4.67026 0.01 
214 1 22 0.000867968 0.207337 0.127571 0.0722395 0.111147 -0.152353 0 0 0 1.43371 -4.49309 4.67026 0.01 
215 1 22 -0.000753419 0.203048 0.135315 0.0574725 0.092471 -0.165787 0 0 0 1.43371 -4.49309 4.67026 0.01 
216 1 22 -0.00237481 0.198759 0.14306 0.0427055 0.0737953 -0.179221 0 0 0 1.43371 -4.49309 4.67026 0.01 
217 1 22 -0.00399619 0.19447 0.150804 0.0279385 0.0551195 -0.192655 0 0 0 1.43371 -4.49309 4.67026 0.01 
218 1 22 -0.00561758 0.190182 0.158549 0.0131715 0.0364438 -0.206089 0 0 0 1.43371 -4.49309 4.67026 0.01 
219 1 22 -0.00723896 0.185893 0.166293 -0.00159545 0.0177681 -0.219523 0 0 0 1.43371 -4.49309 4.67026 0.01 
220 1 22 -0.00886035 0.181604 0.174038 -0.0163624 -0.000907579 -0.232957 -0.00140288 0.00764284 0.00884082 1.43371 -4.49309 4.67026 0.01 
221 1 23 0.208176 0.0525032 0.110063 0.160672 -0.0809331 -0.151618 0.916703 -0.638288 0.578152 -3.66864 -2.74712 -3.88891 0.01 
222 1 23 0.208091 0.0544789 0.118843 0.144235 -0.0483911 -0.1591 0.971707 -0.694342 0.589994 -3.66864 -2.74712 -3.88891 0.01 
223 1 23 0.208006 0.0564547 0.127623 0.127799 -0.015849 -0.166582 0.433273 -0.308608 0.246707 -3.66864 -2.74712 -3.88891 0.01 
224 1 23 0.207921 0.0584304 0.136403 0.111363 0.016693 -0.174065 -1.6001 1.18881 -1.09784 -3.66864 -2.74712 -3.88891 0.01 
225 1 23 0.207835 0.0604062 0.145184 0.0949262 0.0492351 -0.181547 -1.77595 1.87946 -1.78185 -3.66864 -2.74712 -3.88891 0.01 
226 1 23 0.20775 0.0623819 0.153964 0.0784899 0.0817771 -0.189029 -0.0222994 0.0353398 -0.0296169 -3.66864 -2.74712 -3.88891 0.01 
227 1 23 0.207665 0.0643577 0.162744 0.0620536 0.114319 -0.196512 0 0 0 -3.66864 -2.74712 -3.88891 0.01 
228 1 23 0.20758 0.0663334 0.171524 0.0456173 0.146861 -0.203994 0 0 0 -3.66864 -2.74712 -3.88891 0.01 
229 1 23 0.207495 0.0683092 0.180304 0.0291809 0.179403 -0.211476 0 0 0 -3.66864 -2.74712 -3.88891 0.01 
230 1 23 0.20741 0.070285 0.189084 0.0127446 0.211945 -0.218958 0 0 0 -3.66864 -2.74712 -3.88891 0.01 
231 1 24 0.158731 0.0224943 0.00989245 0.00746482 -0.0481618 -0.00595427 0.228553 -0.253961 1.05019 3.86558 0.885445 17.1291 0.01 
232 1 24 0.161202 0.0205469 0.0183249 0.0482877 -0.0384462 -0.0156691 0 0 0 3.86558 0.885445 17.1291 0.01 
233 1 24 0.163672 0.0185996 0.0267573 0.0891106 -0.0287306 -0.025384 0 0 0 3.86558 0.885445 17.1291 0.01 
234 1 24 0.166142 0.0166522 0.0351898 0.129933 -0.019015 -0.0350989 0 0 0 3.86558 0.885445 17.1291 0.01 
235 1 24 0.168612 0.0147048 0.0436222 0.170756 -0.00929937 -0.0448137 0 0 0 3.86558 0.885445 17.1291 0.01 
236 1 24 0.171082 0.0127575 0.0520546 0.211579 0.00041624 -0.0545286 0 0 0 3.86558 0.885445 17.1291 0.01 
237 1 24 0.173553 0.0108101 0.0604871 0.252402 0.0101319 -0.0642435 0 0 0 3.86558 0.885445 17.1291 0.01 
238 1 24 0.176023 0.00886277 0.0689195 0.293225 0.0198475 -0.0739583 0 0 0 3.86558 0.885445 17.1291 0.01 
239 1 24 0.178493 0.00691541 0.077352 0.334048 0.0295631 -0.0836732 0 0 0 3.86558 0.885445 17.1291 0.01 
240 1 24 0.180963 0.00496806 0.0857844 0.374871 0.0392787 -0.0933881 0.0125328 -0.0861495 -0.0665887 3.86558 0.885445 17.1291 0.01 
241 1 25 0.135236 -0.177035 0.110729 0.00873399 -0.138442 -0.0265022 0 0 0 -4.04448 0.0363622 1.22819 0.01 
242 1 25 0.135753 -0.175974 0.119652 0.00775538 -0.101721 -0.030812 0 0 0 -4.04448 0.0363622 1.22819 0.01 
243 1 25 0.13627 -0.174913 0.128574 0.00677677 -0.0649996 -0.0351217 0 0 0 -4.04448 0.0363622 1.22819 0.01 
244 1 25 0.136787 -0.173852 0.137496 0.00579815 -0.0282785 -0.0394315 0 0 0 -4.04448 0.0363622 1.22819 0.01 
245 1 25 0.137304 -0.172791 0.146418 0.00481954 0.0084425 -0.0437413 0 0 0 -4.04448 0.0363622 1.22819 0.01 
246 1 25 0.137821 -0.17173 0.155341 0.00384093 0.0451635 -0.0480511 0 0 0 -4.04448 0.0363622 1.22819 0.01 
247 1 25 0.138338 -0.170669 0.164263 0.00286231 0.0818846 -0.0523608 0 0 0 -4.04448 0.0363622 1.22819 0.01 
248 1 25 0.138855 -0.169608 0.173185 0.0018837 0.118606 -0.0566706 0 0 0 -4.04448 0.0363622 1.22819 0.01 
249 1 25 0.139372 -0.168547 0.182107 0.000905087 0.155327 -0.0609804 0 0 0 -4.04448 0.0363622 1.22819 0.01 
250 1 25 0.139889 -0.167486 0.19103 -7.35262e-05 0.192048 -0.0652902 0 0 0 -4.04448 0.0363622 1.22819 0.01 
251 1 26 -0.00676654 -0.171036 0.00991285 -0.00191847 -0.0241445 0.00498275 0.0473389 -0.0641406 0.586923 2.37596 -0.284151 2.85716 0.01 
252 1 26 -0.00555265 -0.172732 0.0186677 0.00044186 -0.0414774 0.00129615 0 0 0 2.37596 -0.284151 2.85716 0.01 
253 1 26 -0.00433875 -0.174429 0.0274225 0.0028022 -0.0588103 -0.00239045 0 0 0 2.37596 -0.284151 2.85716 0.01 
254 1 26 -0.00312485 -0.176126 0.0361774 0.00516253 -0.0761431 -0.00607706 0 0 0 2.37596 -0.284151 2.85716 0.01 
255 1 26 -0.00191096 -0.177823 0.0449322 0.00752287 -0.093476 -0.00976366 0 0 0 2.37596 -0.284151 2.85716 0.01 
256 1 26 -0.000697058 -0.17952 0.0536871 0.0098832 -0.110809 -0.0134503 0 0 0 2.37596 -0.284151 2.85716 0.01 
257 1 26 0.000516838 -0.181216 0.0624419 0.0122435 -0.128142 -0.0171369 0 0 0 2.37596 -0.284151 2.85716 0.01 
258 1 26 0.00173074 -0.182913 0.0711968 0.0146039 -0.145475 -0.0208235 0 0 0 2.37596 -0.284151 2.85716 0.01 
259 1 26 0.00294463 -0.18461 0.0799516 0.0169642 -0.162807 -0.0245101 0 0 0 2.37596 -0.284151 2.85716 0.01 
260 1 26 0.00415853 -0.186307 0.0887065 0.0193245 -0.18014 -0.0281967 0 0 0 2.37596 -0.284151 2.85716 0.01 
261 1 27 -0.12151 0.180881 0.115297 0.0993748 0.417172 -0.0612146 0 0 0 6.37877 -5.17955 4.61327 0.01 
262 1 27 -0.124198 0.175939 0.122322 0.0857873 0.359958 -0.106664 0 0 0 6.37877 -5.17955 4.61327 0.01 
263 1 27 -0.126887 0.170997 0.129347 0.0721998 0.302745 -0.152113 0.0747513 -0.0726841 0.0668069 6.37877 -5.17955 4.61327 0.01 
264 1 27 -0.129576 0.166055 0.136372 0.0586123 0.245531 -0.197562 -0.0262246 0.0205716 0.00622852 6.37877 -5.17955 4.61327 0.01 
265 1 27 -0.132264 0.161113 0.143397 0.0450248 0.188318 -0.243011 0 0 0 6.37877 -5.17955 4.61327 0.01 