ITEM: TIMESTEP
34000
ITEM: NUMBER OF ATOMS
6300
ITEM: BOX BOUNDS mm mm mm
-0.366688 0.357679
-0.32959 0.378241
0 0.5
ITEM: ATOMS id type mol x y z vx vy vz fx fy fz omegax omegay omegaz radius 
1 1 1 -0.139854 -0.112268 0.0838543 -0.267268 -0.0205145 -0.079478 0.409997 -0.175845 0.308359 5.7096 3.01662 -3.71693 0.01 
2 1 1 -0.139659 -0.118297 0.0905344 -0.269523 -0.0593798 -0.114484 -0.469869 0.12074 0.350396 5.7096 3.01662 -3.71693 0.01 
3 1 1 -0.139464 -0.124325 0.0972145 -0.271778 -0.098245 -0.149491 0 0 0 5.7096 3.01662 -3.71693 0.01 
4 1 1 -0.139269 -0.130353 0.103895 -0.274033 -0.13711 -0.184497 0 0 0 5.7096 3.01662 -3.71693 0.01 
5 1 1 -0.139074 -0.136381 0.110575 -0.276288 -0.175975 -0.219504 0 0 0 5.7096 3.01662 -3.71693 0.01 
6 1 1 -0.138879 -0.142409 0.117255 -0.278543 -0.214841 -0.25451 0 0 0 5.7096 3.01662 -3.71693 0.01 
7 1 1 -0.138684 -0.148437 0.123935 -0.280798 -0.253706 -0.289517 0 0 0 5.7096 3.01662 -3.71693 0.01 
8 1 1 -0.13849 -0.154465 0.130615 -0.283053 -0.292571 -0.324523 0 0 0 5.7096 3.01662 -3.71693 0.01 
9 1 1 -0.138295 -0.160494 0.137295 -0.285308 -0.331436 -0.35953 0 0 0 5.7096 3.01662 -3.71693 0.01 
10 1 1 -0.1381 -0.166522 0.143975 -0.287562 -0.370302 -0.394536 0 0 0 5.7096 3.01662 -3.71693 0.01 
11 1 2 -0.021431 -0.127906 0.026611 0.00132328 -0.0655706 -0.142442 0.264259 0.174643 0.228369 2.26603 -2.14183 2.00195 0.01 
12 1 2 -0.0241561 -0.129539 0.0350315 -0.0134415 -0.0901072 -0.151981 0 0 0 2.26603 -2.14183 2.00195 0.01 
13 1 2 -0.0268812 -0.131173 0.043452 -0.0282062 -0.114644 -0.161519 0 0 0 2.26603 -2.14183 2.00195 0.01 
14 1 2 -0.0296063 -0.132807 0.0518725 -0.042971 -0.139181 -0.171058 0 0 0 2.26603 -2.14183 2.00195 0.01 
15 1 2 -0.0323314 -0.13444 0.060293 -0.0577357 -0.163717 -0.180597 -0.699761 -0.456163 -1.27782 2.26603 -2.14183 2.00195 0.01 
16 1 2 -0.0350565 -0.136074 0.0687135 -0.0725005 -0.188254 -0.190136 0.0706666 -0.0928588 0.0273124 2.26603 -2.14183 2.00195 0.01 
17 1 2 -0.0377817 -0.137708 0.077134 -0.0872652 -0.21279 -0.199674 0 0 0 2.26603 -2.14183 2.00195 0.01 
18 1 2 -0.0405068 -0.139341 0.0855545 -0.10203 -0.237327 -0.209213 0 0 0 2.26603 -2.14183 2.00195 0.01 
19 1 2 -0.0432319 -0.140975 0.093975 -0.116795 -0.261864 -0.218752 0.0143877 0.0380178 0.0248829 2.26603 -2.14183 2.00195 0.01 
20 1 2 -0.045957 -0.142609 0.102395 -0.131559 -0.2864 -0.228291 -0.0215461 -0.0155073 0.110051 2.26603 -2.14183 2.00195 0.01 
21 1 3 -0.0284817 -0.0406639 0.0103328 0.074471 -0.128251 0.0263308 0 0 0 -2.54049 -6.68628 2.85884 0.01 
22 1 3 -0.0321433 -0.0461916 0.0164186 0.0495827 -0.123258 0.0158916 0 0 0 -2.54049 -6.68628 2.85884 0.01 
23 1 3 -0.0358049 -0.0517193 0.0225044 0.0246943 -0.118265 0.00545231 0.339506 0.02737 0.106636 -2.54049 -6.68628 2.85884 0.01 
24 1 3 -0.0394665 -0.0572471 0.0285902 -0.000194028 -0.113272 -0.00498694 0 0 0 -2.54049 -6.68628 2.85884 0.01 
25 1 3 -0.0431281 -0.0627748 0.034676 -0.0250824 -0.108279 -0.0154262 0 0 0 -2.54049 -6.68628 2.85884 0.01 
26 1 3 -0.0467897 -0.0683026 0.0407618 -0.0499707 -0.103286 -0.0258654 0 0 0 -2.54049 -6.68628 2.85884 0.01 
27 1 3 -0.0504513 -0.0738303 0.0468476 -0.0748591 -0.0982931 -0.0363047 0 0 0 -2.54049 -6.68628 2.85884 0.01 
28 1 3 -0.0541129 -0.0793581 0.0529333 -0.0997474 -0.0933001 -0.0467439 -0.630679 0.407798 0.563509 -2.54049 -6.68628 2.85884 0.01 
29 1 3 -0.0577745 -0.0848858 0.0590191 -0.124636 -0.0883071 -0.0571832 0 0 0 -2.54049 -6.68628 2.85884 0.01 
30 1 3 -0.0614361 -0.0904136 0.0651049 -0.149524 -0.0833141 -0.0676224 0.377559 -0.381685 -0.202929 -2.54049 -6.68628 2.85884 0.01 
31 1 4 -0.0881169 0.120518 0.00995752 0.00142264 0.0631188 -0.0083722 0.068677 -0.167758 0.362542 -4.99678 4.2271 6.28569 0.01 
32 1 4 -0.0907072 0.126443 0.0162172 -0.00935995 0.0781154 -0.0270289 -0.669759 0.139539 -0.330636 -4.99678 4.2271 6.28569 0.01 
33 1 4 -0.0932975 0.132368 0.022477 -0.0201425 0.093112 -0.0456857 -0.163908 0.327282 -0.521981 -4.99678 4.2271 6.28569 0.01 
34 1 4 -0.0958878 0.138293 0.0287367 -0.0309251 0.108109 -0.0643424 0.121567 -0.263264 0.650768 -4.99678 4.2271 6.28569 0.01 
35 1 4 -0.0984781 0.144218 0.0349964 -0.0417077 0.123105 -0.0829992 0.111548 -0.35755 0.843186 -4.99678 4.2271 6.28569 0.01 
36 1 4 -0.101068 0.150143 0.0412561 -0.0524903 0.138102 -0.101656 0.033375 -0.230275 0.514919 -4.99678 4.2271 6.28569 0.01 
37 1 4 -0.103659 0.156068 0.0475158 -0.0632729 0.153099 -0.120313 -0.0147184 0.043233 -0.0109017 -4.99678 4.2271 6.28569 0.01 
38 1 4 -0.106249 0.161993 0.0537756 -0.0740555 0.168095 -0.138969 0 0 0 -4.99678 4.2271 6.28569 0.01 
39 1 4 -0.108839 0.167918 0.0600353 -0.0848381 0.183092 -0.157626 0 0 0 -4.99678 4.2271 6.28569 0.01 
40 1 4 -0.11143 0.173843 0.066295 -0.0956207 0.198088 -0.176283 -0.0241804 -0.0098579 -0.0199189 -4.99678 4.2271 6.28569 0.01 
41 1 5 0.0795377 -0.135429 0.00990904 0.0039858 0.00420273 0.00142973 0.0526076 0.0383885 0.698266 -0.384467 0.407134 -3.62627 0.01 
42 1 5 0.0805838 -0.134563 0.018806 0.0107495 0.00382985 0.000670761 0 0 0 -0.384467 0.407134 -3.62627 0.01 
43 1 5 0.0816299 -0.133697 0.0277029 0.0175132 0.00345697 -8.82092e-05 0 0 0 -0.384467 0.407134 -3.62627 0.01 
44 1 5 0.082676 -0.13283 0.0365998 0.0242769 0.0030841 -0.00084718 0 0 0 -0.384467 0.407134 -3.62627 0.01 
45 1 5 0.0837221 -0.131964 0.0454967 0.0310406 0.00271122 -0.00160615 0 0 0 -0.384467 0.407134 -3.62627 0.01 
46 1 5 0.0847682 -0.131098 0.0543936 0.0378043 0.00233834 -0.00236512 0 0 0 -0.384467 0.407134 -3.62627 0.01 
47 1 5 0.0858143 -0.130231 0.0632906 0.044568 0.00196546 -0.00312409 0 0 0 -0.384467 0.407134 -3.62627 0.01 
48 1 5 0.0868604 -0.129365 0.0721875 0.0513317 0.00159259 -0.00388306 0 0 0 -0.384467 0.407134 -3.62627 0.01 
49 1 5 0.0879065 -0.128499 0.0810844 0.0580955 0.00121971 -0.00464203 0 0 0 -0.384467 0.407134 -3.62627 0.01 
50 1 5 0.0889526 -0.127632 0.0899813 0.0648592 0.000846832 -0.005401 0 0 0 -0.384467 0.407134 -3.62627 0.01 
51 1 6 0.191285 -0.0351541 0.0210699 0.0787131 -0.256057 0.232393 0 0 0 8.59211 0.11952 -3.3604 0.01 
52 1 6 0.184532 -0.0409331 0.0224869 0.0594628 -0.245541 0.183546 0 0 0 8.59211 0.11952 -3.3604 0.01 
53 1 6 0.17778 -0.0467121 0.0239038 0.0402124 -0.235024 0.134699 0 0 0 8.59211 0.11952 -3.3604 0.01 
54 1 6 0.171027 -0.0524911 0.0253207 0.0209621 -0.224508 0.0858527 0 0 0 8.59211 0.11952 -3.3604 0.01 
55 1 6 0.164275 -0.0582701 0.0267377 0.0017117 -0.213992 0.037006 0 0 0 8.59211 0.11952 -3.3604 0.01 
56 1 6 0.157522 -0.0640491 0.0281546 -0.0175387 -0.203475 -0.0118407 0 0 0 8.59211 0.11952 -3.3604 0.01 
57 1 6 0.15077 -0.0698281 0.0295716 -0.036789 -0.192959 -0.0606874 0 0 0 8.59211 0.11952 -3.3604 0.01 
58 1 6 0.144018 -0.0756071 0.0309885 -0.0560394 -0.182442 -0.109534 0.639911 -0.767363 -0.744863 8.59211 0.11952 -3.3604 0.01 
59 1 6 0.137265 -0.0813861 0.0324054 -0.0752897 -0.171926 -0.158381 -0.675531 0.474573 0.783026 8.59211 0.11952 -3.3604 0.01 
60 1 6 0.130513 -0.087165 0.0338224 -0.0945401 -0.16141 -0.207228 0 0 0 8.59211 0.11952 -3.3604 0.01 
61 1 7 -0.0430846 0.221204 0.0101458 -0.138612 0.178733 -0.066081 0 0 0 -4.31032 -1.00296 -2.30779 0.01 
62 1 7 -0.0410593 0.2268 0.0168972 -0.132469 0.20316 -0.0881713 0.512464 0.313837 -0.533011 -4.31032 -1.00296 -2.30779 0.01 
63 1 7 -0.0390341 0.232396 0.0236486 -0.126325 0.227586 -0.110262 -0.242766 0.371758 -0.0106826 -4.31032 -1.00296 -2.30779 0.01 
64 1 7 -0.0370089 0.237992 0.0303999 -0.120182 0.252013 -0.132352 -1.03534 -1.00002 0.389455 -4.31032 -1.00296 -2.30779 0.01 
65 1 7 -0.0349836 0.243589 0.0371513 -0.114038 0.27644 -0.154442 -1.14363 -0.732377 1.26117 -4.31032 -1.00296 -2.30779 0.01 
66 1 7 -0.0329584 0.249185 0.0439026 -0.107895 0.300866 -0.176532 0.114558 0.166265 -0.0935229 -4.31032 -1.00296 -2.30779 0.01 
67 1 7 -0.0309331 0.254781 0.050654 -0.101751 0.325293 -0.198623 0 0 0 -4.31032 -1.00296 -2.30779 0.01 
68 1 7 -0.0289079 0.260377 0.0574053 -0.0956074 0.34972 -0.220713 0 0 0 -4.31032 -1.00296 -2.30779 0.01 
69 1 7 -0.0268827 0.265973 0.0641567 -0.0894638 0.374146 -0.242803 0 0 0 -4.31032 -1.00296 -2.30779 0.01 
70 1 7 -0.0248574 0.27157 0.0709081 -0.0833203 0.398573 -0.264893 0.94917 0.408428 -0.952039 -4.31032 -1.00296 -2.30779 0.01 
71 1 8 0.142532 -0.173087 0.0950017 0.243705 -0.405057 -0.214522 0.124549 -0.334053 0.192645 12.2964 6.2612 5.29189 0.01 
72 1 8 0.150228 -0.170669 0.0989923 0.255893 -0.413401 -0.23297 -0.152015 0.139723 -0.146916 12.2964 6.2612 5.29189 0.01 
73 1 8 0.157924 -0.16825 0.102983 0.268082 -0.421746 -0.251417 0 0 0 12.2964 6.2612 5.29189 0.01 
74 1 8 0.16562 -0.165832 0.106974 0.28027 -0.430091 -0.269865 0 0 0 12.2964 6.2612 5.29189 0.01 
75 1 8 0.173316 -0.163414 0.110964 0.292458 -0.438436 -0.288313 0 0 0 12.2964 6.2612 5.29189 0.01 
76 1 8 0.181012 -0.160995 0.114955 0.304646 -0.44678 -0.306761 0 0 0 12.2964 6.2612 5.29189 0.01 
77 1 8 0.188707 -0.158577 0.118945 0.316834 -0.455125 -0.325208 0 0 0 12.2964 6.2612 5.29189 0.01 
78 1 8 0.196403 -0.156158 0.122936 0.329023 -0.46347 -0.343656 0.118162 -0.260853 0.424271 12.2964 6.2612 5.29189 0.01 
79 1 8 0.204099 -0.15374 0.126927 0.341211 -0.471815 -0.362104 0 0 0 12.2964 6.2612 5.29189 0.01 
80 1 8 0.211795 -0.151322 0.130917 0.353399 -0.48016 -0.380551 0 0 0 12.2964 6.2612 5.29189 0.01 
81 1 9 -0.132257 0.0357354 0.062205 -0.0306077 -0.223871 -0.138684 -0.128188 0.0918167 -0.0561582 2.99024 0.270551 8.26566 0.01 
82 1 9 -0.125845 0.0360613 0.0685119 -0.0315956 -0.189729 -0.139444 0 0 0 2.99024 0.270551 8.26566 0.01 
83 1 9 -0.119432 0.0363873 0.0748188 -0.0325835 -0.155587 -0.140204 0 0 0 2.99024 0.270551 8.26566 0.01 
84 1 9 -0.11302 0.0367133 0.0811257 -0.0335714 -0.121444 -0.140964 -0.134117 0.161483 0.071445 2.99024 0.270551 8.26566 0.01 
85 1 9 -0.106608 0.0370392 0.0874326 -0.0345593 -0.0873022 -0.141724 0 0 0 2.99024 0.270551 8.26566 0.01 
86 1 9 -0.100196 0.0373652 0.0937395 -0.0355473 -0.05316 -0.142484 0 0 0 2.99024 0.270551 8.26566 0.01 
87 1 9 -0.0937835 0.0376911 0.100046 -0.0365352 -0.0190178 -0.143245 0 0 0 2.99024 0.270551 8.26566 0.01 
88 1 9 -0.0873713 0.0380171 0.106353 -0.0375231 0.0151245 -0.144005 0 0 0 2.99024 0.270551 8.26566 0.01 
89 1 9 -0.0809591 0.038343 0.11266 -0.038511 0.0492667 -0.144765 -0.000513542 0.0379584 0.00382186 2.99024 0.270551 8.26566 0.01 
90 1 9 -0.0745468 0.038669 0.118967 -0.0394989 0.0834089 -0.145525 0.0217853 -0.00387561 -0.00977652 2.99024 0.270551 8.26566 0.01 
91 1 10 0.068355 0.239773 0.0989603 0.176833 0.584864 -0.314013 0.0416249 0.0187444 -0.0653722 8.30098 -9.0163 -6.69402 0.01 
92 1 10 0.0623356 0.243305 0.104643 0.149234 0.577985 -0.338971 0 0 0 8.30098 -9.0163 -6.69402 0.01 
93 1 10 0.0563162 0.246836 0.110326 0.121636 0.571106 -0.363929 0 0 0 8.30098 -9.0163 -6.69402 0.01 
94 1 10 0.0502968 0.250368 0.116009 0.0940369 0.564226 -0.388888 0 0 0 8.30098 -9.0163 -6.69402 0.01 
95 1 10 0.0442773 0.253899 0.121692 0.0664383 0.557347 -0.413846 0 0 0 8.30098 -9.0163 -6.69402 0.01 
96 1 10 0.0382579 0.257431 0.127375 0.0388396 0.550468 -0.438804 0 0 0 8.30098 -9.0163 -6.69402 0.01 
97 1 10 0.0322385 0.260962 0.133058 0.0112409 0.543589 -0.463762 0 0 0 8.30098 -9.0163 -6.69402 0.01 
98 1 10 0.0262191 0.264494 0.13874 -0.0163577 0.536709 -0.48872 0.831156 -0.258197 0.455069 8.30098 -9.0163 -6.69402 0.01 
99 1 10 0.0201996 0.268025 0.144423 -0.0439564 0.52983 -0.513678 0 0 0 8.30098 -9.0163 -6.69402 0.01 
100 1 10 0.0141802 0.271557 0.150106 -0.0715551 0.522951 -0.538636 0 0 0 8.30098 -9.0163 -6.69402 0.01 
101 1 11 -0.24518 -0.0841173 0.010626 -0.0208163 -0.0894912 0.0834104 0.915429 -1.14451 -0.769633 2.41579 0.956336 -7.4574 0.01 
102 1 11 -0.244989 -0.0903505 0.0171153 -0.0610944 -0.106587 0.0681701 0 0 0 2.41579 0.956336 -7.4574 0.01 
103 1 11 -0.244799 -0.0965838 0.0236045 -0.101372 -0.123683 0.0529298 -1.30677 1.23939 3.91495 2.41579 0.956336 -7.4574 0.01 
104 1 11 -0.244609 -0.102817 0.0300937 -0.141651 -0.140779 0.0376895 0 0 0 2.41579 0.956336 -7.4574 0.01 
105 1 11 -0.244419 -0.10905 0.0365829 -0.181929 -0.157875 0.0224493 -0.0858226 0.0039916 -0.0200037 2.41579 0.956336 -7.4574 0.01 
106 1 11 -0.244228 -0.115284 0.0430722 -0.222207 -0.174971 0.00720898 0 0 0 2.41579 0.956336 -7.4574 0.01 
107 1 11 -0.244038 -0.121517 0.0495614 -0.262485 -0.192067 -0.0080313 0.526342 -0.152058 -1.1319 2.41579 0.956336 -7.4574 0.01 
108 1 11 -0.243848 -0.12775 0.0560506 -0.302763 -0.209163 -0.0232716 0.0352125 -0.0167432 -0.0752618 2.41579 0.956336 -7.4574 0.01 
109 1 11 -0.243657 -0.133983 0.0625399 -0.343041 -0.226259 -0.0385119 0 0 0 2.41579 0.956336 -7.4574 0.01 
110 1 11 -0.243467 -0.140217 0.0690291 -0.383319 -0.243355 -0.0537521 0 0 0 2.41579 0.956336 -7.4574 0.01 
111 1 12 0.118951 0.0453389 0.051608 0.0676914 -0.0808209 -0.0288746 -0.389347 1.14279 1.35379 -2.85254 -0.477813 -6.34678 0.01 
112 1 12 0.119922 0.0491175 0.0597184 0.0877978 -0.0638494 -0.039189 0 0 0 -2.85254 -0.477813 -6.34678 0.01 
113 1 12 0.120893 0.052896 0.0678289 0.107904 -0.046878 -0.0495035 0 0 0 -2.85254 -0.477813 -6.34678 0.01 
114 1 12 0.121865 0.0566746 0.0759393 0.128011 -0.0299065 -0.0598179 0 0 0 -2.85254 -0.477813 -6.34678 0.01 
115 1 12 0.122836 0.0604531 0.0840497 0.148117 -0.0129351 -0.0701323 1.96384 -1.18989 0.251844 -2.85254 -0.477813 -6.34678 0.01 
116 1 12 0.123807 0.0642317 0.0921602 0.168223 0.00403638 -0.0804468 0 0 0 -2.85254 -0.477813 -6.34678 0.01 
117 1 12 0.124778 0.0680103 0.100271 0.18833 0.0210078 -0.0907612 -1.28287 -0.101467 -0.830786 -2.85254 -0.477813 -6.34678 0.01 
118 1 12 0.125749 0.0717888 0.108381 0.208436 0.0379793 -0.101076 0 0 0 -2.85254 -0.477813 -6.34678 0.01 
119 1 12 0.126721 0.0755674 0.116492 0.228543 0.0549507 -0.11139 0 0 0 -2.85254 -0.477813 -6.34678 0.01 
120 1 12 0.127692 0.0793459 0.124602 0.248649 0.0719222 -0.121705 0 0 0 -2.85254 -0.477813 -6.34678 0.01 
121 1 13 0.000359012 0.286048 0.0696501 -0.069524 0.153121 -0.150695 0.404307 -0.259928 1.27911 -2.43816 -1.98791 2.72813 0.01 
122 1 13 -0.00333463 0.28107 0.0761753 -0.0689156 0.158954 -0.145901 -0.314485 0.00184585 -0.731023 -2.43816 -1.98791 2.72813 0.01 
123 1 13 -0.00702828 0.276092 0.0827005 -0.0683072 0.164787 -0.141107 -0.073212 0.0174601 -0.115703 -2.43816 -1.98791 2.72813 0.01 
124 1 13 -0.0107219 0.271114 0.0892258 -0.0676988 0.17062 -0.136313 0 0 0 -2.43816 -1.98791 2.72813 0.01 
125 1 13 -0.0144156 0.266137 0.095751 -0.0670904 0.176453 -0.131519 0 0 0 -2.43816 -1.98791 2.72813 0.01 
126 1 13 -0.0181092 0.261159 0.102276 -0.066482 0.182286 -0.126725 0 0 0 -2.43816 -1.98791 2.72813 0.01 
127 1 13 -0.0218029 0.256181 0.108802 -0.0658736 0.188119 -0.121931 0 0 0 -2.43816 -1.98791 2.72813 0.01 
128 1 13 -0.0254965 0.251203 0.115327 -0.0652652 0.193952 -0.117137 0 0 0 -2.43816 -1.98791 2.72813 0.01 
129 1 13 -0.0291902 0.246225 0.121852 -0.0646568 0.199784 -0.112343 0 0 0 -2.43816 -1.98791 2.72813 0.01 
130 1 13 -0.0328838 0.241248 0.128377 -0.0640484 0.205617 -0.107549 0 0 0 -2.43816 -1.98791 2.72813 0.01 
131 1 14 -0.04795 0.127901 0.0105239 -0.0349493 -0.0570953 0.0314443 0.9634 1.37924 -3.16572 -4.72345 2.83197 2.92287 0.01 
132 1 14 -0.0466723 0.133548 0.0174142 -0.0319426 -0.0208151 0.00115125 1.2758 0.147417 -1.14816 -4.72345 2.83197 2.92287 0.01 
133 1 14 -0.0453946 0.139196 0.0243045 -0.0289359 0.0154652 -0.0291418 -1.3703 -1.95568 7.91943 -4.72345 2.83197 2.92287 0.01 
134 1 14 -0.044117 0.144843 0.0311947 -0.0259293 0.0517454 -0.0594348 -0.721475 0.315086 -0.254327 -4.72345 2.83197 2.92287 0.01 
135 1 14 -0.0428393 0.15049 0.038085 -0.0229226 0.0880256 -0.0897278 -0.0223496 0.0176062 -0.00613494 -4.72345 2.83197 2.92287 0.01 
136 1 14 -0.0415617 0.156138 0.0449752 -0.0199159 0.124306 -0.120021 0 0 0 -4.72345 2.83197 2.92287 0.01 
137 1 14 -0.040284 0.161785 0.0518655 -0.0169092 0.160586 -0.150314 0 0 0 -4.72345 2.83197 2.92287 0.01 
138 1 14 -0.0390064 0.167432 0.0587557 -0.0139025 0.196866 -0.180607 0 0 0 -4.72345 2.83197 2.92287 0.01 
139 1 14 -0.0377287 0.173079 0.065646 -0.0108959 0.233147 -0.2109 0 0 0 -4.72345 2.83197 2.92287 0.01 
140 1 14 -0.0364511 0.178727 0.0725363 -0.00788919 0.269427 -0.241193 1.13994 -0.854039 -2.4774 -4.72345 2.83197 2.92287 0.01 
141 1 15 -0.00847228 -0.0596911 0.00993089 -0.00769374 -0.0380284 0.0136728 0.0112185 0.149908 0.153921 2.75837 -0.671737 -2.08816 0.01 
142 1 15 -0.0124767 -0.0628729 0.0173363 -0.0193123 -0.0500934 0.00220637 -0.057792 -0.0863998 -0.0988498 2.75837 -0.671737 -2.08816 0.01 
143 1 15 -0.0164812 -0.0660547 0.0247418 -0.0309309 -0.0621584 -0.00926005 -0.0610444 -0.0883336 -0.0977982 2.75837 -0.671737 -2.08816 0.01 
144 1 15 -0.0204857 -0.0692364 0.0321472 -0.0425494 -0.0742234 -0.0207265 0.276485 -0.021639 -0.0859639 2.75837 -0.671737 -2.08816 0.01 
145 1 15 -0.0244901 -0.0724182 0.0395527 -0.054168 -0.0862884 -0.0321929 -0.0388169 -0.0544616 -0.0562531 2.75837 -0.671737 -2.08816 0.01 
146 1 15 -0.0284946 -0.0756 0.0469581 -0.0657865 -0.0983534 -0.0436593 -0.016451 -0.0230049 -0.0229476 2.75837 -0.671737 -2.08816 0.01 
147 1 15 -0.032499 -0.0787818 0.0543636 -0.0774051 -0.110418 -0.0551258 -0.00111421 0.0154412 -0.000147147 2.75837 -0.671737 -2.08816 0.01 
148 1 15 -0.0365035 -0.0819635 0.061769 -0.0890236 -0.122483 -0.0665922 0.511261 0.0379568 0.652979 2.75837 -0.671737 -2.08816 0.01 
149 1 15 -0.0405079 -0.0851453 0.0691745 -0.100642 -0.134548 -0.0780586 -0.398887 0.0588672 -0.447802 2.75837 -0.671737 -2.08816 0.01 
150 1 15 -0.0445124 -0.0883271 0.0765799 -0.112261 -0.146613 -0.0895251 -0.0946149 -0.0898791 0.00842815 2.75837 -0.671737 -2.08816 0.01 
151 1 16 -0.0431276 0.18006 0.0128566 -0.0511426 0.11016 -0.0146786 -0.0185396 0.0203851 -0.0284223 -3.60877 0.521161 2.57774 0.01 
152 1 16 -0.0414351 0.186638 0.0187606 -0.0650237 0.135829 -0.0393015 0.216436 -0.0369407 0.150064 -3.60877 0.521161 2.57774 0.01 
153 1 16 -0.0397426 0.193217 0.0246645 -0.0789048 0.161498 -0.0639245 -0.196519 -0.122225 0.32307 -3.60877 0.521161 2.57774 0.01 
154 1 16 -0.0380501 0.199796 0.0305685 -0.092786 0.187167 -0.0885474 -0.267068 -0.244671 0.62603 -3.60877 0.521161 2.57774 0.01 
155 1 16 -0.0363576 0.206374 0.0364725 -0.106667 0.212836 -0.11317 -0.106901 -0.38707 0.591113 -3.60877 0.521161 2.57774 0.01 
156 1 16 -0.0346651 0.212953 0.0423764 -0.120548 0.238505 -0.137793 -0.0402979 -0.132592 0.216301 -3.60877 0.521161 2.57774 0.01 
157 1 16 -0.0329726 0.219532 0.0482804 -0.134429 0.264174 -0.162416 0 0 0 -3.60877 0.521161 2.57774 0.01 
158 1 16 -0.0312801 0.22611 0.0541844 -0.148311 0.289842 -0.187039 0 0 0 -3.60877 0.521161 2.57774 0.01 
159 1 16 -0.0295875 0.232689 0.0600883 -0.162192 0.315511 -0.211662 0 0 0 -3.60877 0.521161 2.57774 0.01 
160 1 16 -0.027895 0.239268 0.0659923 -0.176073 0.34118 -0.236285 0.0360343 -0.158139 0.0170251 -3.60877 0.521161 2.57774 0.01 
161 1 17 0.0747857 0.0894787 0.00973362 0.0115771 -0.00533707 -0.00164714 0.733099 -0.200507 3.6756 0.921288 1.6618 2.64141 0.01 
162 1 17 0.0784752 0.0876806 0.0177432 0.0296371 -0.00297064 -0.00943498 0 0 0 0.921288 1.6618 2.64141 0.01 
163 1 17 0.0821647 0.0858825 0.0257529 0.047697 -0.000604223 -0.0172228 0 0 0 0.921288 1.6618 2.64141 0.01 
164 1 17 0.0858543 0.0840843 0.0337625 0.0657569 0.0017622 -0.0250107 0 0 0 0.921288 1.6618 2.64141 0.01 
165 1 17 0.0895438 0.0822862 0.0417721 0.0838168 0.00412862 -0.0327985 0 0 0 0.921288 1.6618 2.64141 0.01 
166 1 17 0.0932334 0.0804881 0.0497817 0.101877 0.00649504 -0.0405863 0 0 0 0.921288 1.6618 2.64141 0.01 
167 1 17 0.0969229 0.07869 0.0577914 0.119937 0.00886146 -0.0483742 0.493801 -0.735284 -0.876831 0.921288 1.6618 2.64141 0.01 
168 1 17 0.100612 0.0768919 0.065801 0.137996 0.0112279 -0.056162 0.578086 -0.707 -0.888041 0.921288 1.6618 2.64141 0.01 
169 1 17 0.104302 0.0750938 0.0738106 0.156056 0.0135943 -0.0639499 0.0822947 0.127528 -0.172047 0.921288 1.6618 2.64141 0.01 
170 1 17 0.107992 0.0732957 0.0818202 0.174116 0.0159607 -0.0717377 -1.65476 1.47389 -0.783333 0.921288 1.6618 2.64141 0.01 
171 1 18 -0.326822 -0.0435813 0.0114034 -0.0197795 0.0230053 0.0222434 0 0 0 -3.1301 -5.74226 -3.62261 0.01 
172 1 18 -0.324069 -0.0412492 0.0196487 -0.0586775 0.038843 0.0307486 0 0 0 -3.1301 -5.74226 -3.62261 0.01 
173 1 18 -0.321317 -0.038917 0.027894 -0.0975756 0.0546806 0.0392539 0 0 0 -3.1301 -5.74226 -3.62261 0.01 
174 1 18 -0.318564 -0.0365848 0.0361393 -0.136474 0.0705182 0.0477591 0 0 0 -3.1301 -5.74226 -3.62261 0.01 
175 1 18 -0.315812 -0.0342526 0.0443846 -0.175372 0.0863558 0.0562643 0 0 0 -3.1301 -5.74226 -3.62261 0.01 
176 1 18 -0.31306 -0.0319204 0.0526299 -0.21427 0.102193 0.0647695 0 0 0 -3.1301 -5.74226 -3.62261 0.01 
177 1 18 -0.310307 -0.0295882 0.0608752 -0.253168 0.118031 0.0732747 0 0 0 -3.1301 -5.74226 -3.62261 0.01 
178 1 18 -0.307555 -0.027256 0.0691205 -0.292066 0.133869 0.0817799 0 0 0 -3.1301 -5.74226 -3.62261 0.01 
179 1 18 -0.304802 -0.0249238 0.0773658 -0.330964 0.149706 0.0902851 0 0 0 -3.1301 -5.74226 -3.62261 0.01 
180 1 18 -0.30205 -0.0225916 0.0856111 -0.369862 0.165544 0.0987903 0 0 0 -3.1301 -5.74226 -3.62261 0.01 
181 1 19 0.0166402 0.216853 0.086171 -0.00518943 0.371741 -0.24244 0 0 0 0.0711537 0.374878 0.488369 0.01 
182 1 19 0.016593 0.209811 0.0917752 0.000350587 0.371319 -0.242924 0.790634 0.51074 1.93452 0.0711537 0.374878 0.488369 0.01 
183 1 19 0.0165457 0.202769 0.0973795 0.00589061 0.370897 -0.243407 0 0 0 0.0711537 0.374878 0.488369 0.01 
184 1 19 0.0164984 0.195727 0.102984 0.0114306 0.370475 -0.24389 -0.906678 -0.786686 -1.74132 0.0711537 0.374878 0.488369 0.01 
185 1 19 0.0164511 0.188685 0.108588 0.0169706 0.370053 -0.244374 0 0 0 0.0711537 0.374878 0.488369 0.01 
186 1 19 0.0164039 0.181642 0.114192 0.0225107 0.369632 -0.244857 0 0 0 0.0711537 0.374878 0.488369 0.01 
187 1 19 0.0163566 0.1746 0.119796 0.0280507 0.36921 -0.24534 0 0 0 0.0711537 0.374878 0.488369 0.01 
188 1 19 0.0163093 0.167558 0.125401 0.0335907 0.368788 -0.245824 0 0 0 0.0711537 0.374878 0.488369 0.01 
189 1 19 0.0162621 0.160516 0.131005 0.0391307 0.368366 -0.246307 0 0 0 0.0711537 0.374878 0.488369 0.01 
190 1 19 0.0162148 0.153474 0.136609 0.0446707 0.367944 -0.24679 0.242708 0.46141 0.544639 0.0711537 0.374878 0.488369 0.01 
191 1 20 -0.0066437 0.193394 0.012448 -0.0112374 0.0942533 0.0495925 -1.00579 0.845294 -3.03499 -1.49625 3.50887 1.91857 0.01 
192 1 20 -0.00472887 0.200632 0.017443 -0.00759635 0.105401 0.0320443 0 0 0 -1.49625 3.50887 1.91857 0.01 
193 1 20 -0.00281403 0.207869 0.022438 -0.00395528 0.116548 0.0144961 0.307639 -0.64759 0.44541 -1.49625 3.50887 1.91857 0.01 
194 1 20 -0.0008992 0.215107 0.0274331 -0.000314203 0.127696 -0.00305204 0.617309 -0.828982 0.925956 -1.49625 3.50887 1.91857 0.01 
195 1 20 0.00101563 0.222345 0.0324281 0.00332687 0.138844 -0.0206002 0.596466 -0.926147 1.40977 -1.49625 3.50887 1.91857 0.01 
196 1 20 0.00293047 0.229582 0.0374231 0.00696794 0.149991 -0.0381484 0.470656 -0.908414 1.66202 -1.49625 3.50887 1.91857 0.01 
197 1 20 0.0048453 0.23682 0.0424182 0.010609 0.161139 -0.0556966 0.0744871 -0.957014 1.51609 -1.49625 3.50887 1.91857 0.01 
198 1 20 0.00676013 0.244057 0.0474132 0.0142501 0.172286 -0.0732447 -0.548631 -0.890732 1.18599 -1.49625 3.50887 1.91857 0.01 
199 1 20 0.00867496 0.251295 0.0524082 0.0178912 0.183434 -0.0907929 0.30347 3.31033 -2.88142 -1.49625 3.50887 1.91857 0.01 
200 1 20 0.0105898 0.258533 0.0574033 0.0215322 0.194581 -0.108341 -0.357293 -0.123697 0.185332 -1.49625 3.50887 1.91857 0.01 
201 1 21 0.012629 0.00473019 0.0111139 0.0821049 -0.0423909 0.0297481 -0.00038365 -0.00234773 -0.00135754 -3.50576 3.38204 3.85264 0.01 
202 1 21 0.0106411 0.0112892 0.0169471 0.0765635 -0.0295997 0.0134769 1.40168 0.393171 -1.3776 -3.50576 3.38204 3.85264 0.01 
203 1 21 0.00865314 0.0178483 0.0227804 0.0710222 -0.0168086 -0.00279429 -0.217425 -0.178158 0.449477 -3.50576 3.38204 3.85264 0.01 
204 1 21 0.00666519 0.0244074 0.0286136 0.0654808 -0.00401739 -0.0190655 -1.42318 -0.454471 0.597682 -3.50576 3.38204 3.85264 0.01 
205 1 21 0.00467725 0.0309664 0.0344469 0.0599394 0.00877377 -0.0353367 -0.90178 -0.614979 1.62789 -3.50576 3.38204 3.85264 0.01 
206 1 21 0.0026893 0.0375255 0.0402801 0.054398 0.0215649 -0.0516079 -0.256119 -0.15486 0.414942 -3.50576 3.38204 3.85264 0.01 
207 1 21 0.000701359 0.0440845 0.0461134 0.0488566 0.0343561 -0.0678791 1.40266 1.25766 -0.372052 -3.50576 3.38204 3.85264 0.01 
208 1 21 -0.00128659 0.0506436 0.0519467 0.0433152 0.0471473 -0.0841503 0 0 0 -3.50576 3.38204 3.85264 0.01 
209 1 21 -0.00327453 0.0572027 0.0577799 0.0377738 0.0599384 -0.100421 0 0 0 -3.50576 3.38204 3.85264 0.01 
210 1 21 -0.00526248 0.0637617 0.0636132 0.0322324 0.0727296 -0.116693 -0.165527 -0.215074 -0.504356 -3.50576 3.38204 3.85264 0.01 
211 1 22 0.0169534 0.273154 0.0709567 -0.0237844 0.431724 -0.365825 0 0 0 -1.7133 -1.07103 1.65651 0.01 
212 1 22 0.0135811 0.267123 0.0767229 -0.0199689 0.436017 -0.359103 0 0 0 -1.7133 -1.07103 1.65651 0.01 
213 1 22 0.0102088 0.261091 0.0824891 -0.0161534 0.44031 -0.352381 0 0 0 -1.7133 -1.07103 1.65651 0.01 
214 1 22 0.00683643 0.25506 0.0882552 -0.0123379 0.444603 -0.345659 0 0 0 -1.7133 -1.07103 1.65651 0.01 
215 1 22 0.0034641 0.249028 0.0940214 -0.00852244 0.448896 -0.338937 0 0 0 -1.7133 -1.07103 1.65651 0.01 
216 1 22 9.17753e-05 0.242997 0.0997876 -0.00470695 0.453189 -0.332215 -0.118564 -0.04481 -0.233354 -1.7133 -1.07103 1.65651 0.01 
217 1 22 -0.00328055 0.236966 0.105554 -0.000891453 0.457482 -0.325493 0.382476 -0.10178 0.273695 -1.7133 -1.07103 1.65651 0.01 
218 1 22 -0.00665288 0.230934 0.11132 0.00292404 0.461775 -0.318772 0 0 0 -1.7133 -1.07103 1.65651 0.01 
219 1 22 -0.0100252 0.224903 0.117086 0.00673954 0.466067 -0.31205 0 0 0 -1.7133 -1.07103 1.65651 0.01 
220 1 22 -0.0133975 0.218871 0.122852 0.010555 0.47036 -0.305328 -0.721249 0.316451 1.40593 -1.7133 -1.07103 1.65651 0.01 
221 1 23 0.263179 0.0531565 0.0838573 0.496989 0.0817791 -0.276159 0 0 0 -1.1127 -2.18282 4.28828 0.01 
222 1 23 0.257314 0.057584 0.0890538 0.46666 0.0624121 -0.293887 0 0 0 -1.1127 -2.18282 4.28828 0.01 
223 1 23 0.25145 0.0620115 0.0942502 0.43633 0.0430452 -0.311615 0 0 0 -1.1127 -2.18282 4.28828 0.01 
224 1 23 0.245585 0.0664391 0.0994467 0.406001 0.0236782 -0.329343 0.306476 0.552465 2.34068 -1.1127 -2.18282 4.28828 0.01 
225 1 23 0.239721 0.0708666 0.104643 0.375672 0.00431131 -0.347071 0 0 0 -1.1127 -2.18282 4.28828 0.01 
226 1 23 0.233856 0.0752941 0.10984 0.345342 -0.0150556 -0.364798 0 0 0 -1.1127 -2.18282 4.28828 0.01 
227 1 23 0.227991 0.0797216 0.115036 0.315013 -0.0344226 -0.382526 0 0 0 -1.1127 -2.18282 4.28828 0.01 
228 1 23 0.222127 0.0841491 0.120233 0.284684 -0.0537895 -0.400254 0 0 0 -1.1127 -2.18282 4.28828 0.01 
229 1 23 0.216262 0.0885766 0.125429 0.254354 -0.0731564 -0.417982 0 0 0 -1.1127 -2.18282 4.28828 0.01 
230 1 23 0.210398 0.0930041 0.130626 0.224025 -0.0925234 -0.43571 0 0 0 -1.1127 -2.18282 4.28828 0.01 
231 1 24 0.172766 0.011254 0.0108637 0.11206 -0.152006 0.0516225 0 0 0 -6.74229 2.75259 -0.610189 0.01 
232 1 24 0.180107 0.0112874 0.0160703 0.126412 -0.12138 0.0311904 0 0 0 -6.74229 2.75259 -0.610189 0.01 
233 1 24 0.187448 0.0113208 0.021277 0.140764 -0.0907551 0.0107584 0.0857096 0.121023 -0.323961 -6.74229 2.75259 -0.610189 0.01 
234 1 24 0.194789 0.0113543 0.0264836 0.155116 -0.0601299 -0.00967374 0.0823128 0.0786439 -0.328147 -6.74229 2.75259 -0.610189 0.01 
235 1 24 0.20213 0.0113877 0.0316902 0.169468 -0.0295046 -0.0301058 -0.161591 0.0171298 0.264385 -6.74229 2.75259 -0.610189 0.01 
236 1 24 0.209471 0.0114211 0.0368969 0.183821 0.00112062 -0.0505379 -0.204344 -0.0372392 0.0874704 -6.74229 2.75259 -0.610189 0.01 
237 1 24 0.216812 0.0114546 0.0421035 0.198173 0.0317459 -0.07097 0 0 0 -6.74229 2.75259 -0.610189 0.01 
238 1 24 0.224153 0.011488 0.0473101 0.212525 0.0623711 -0.0914021 0 0 0 -6.74229 2.75259 -0.610189 0.01 
239 1 24 0.231494 0.0115214 0.0525168 0.226877 0.0929963 -0.111834 -0.684047 1.12533 2.64495 -6.74229 2.75259 -0.610189 0.01 
240 1 24 0.238835 0.0115548 0.0577234 0.241229 0.123622 -0.132266 1.24905 -1.98837 -1.88875 -6.74229 2.75259 -0.610189 0.01 
241 1 25 0.143186 -0.211633 0.0614871 0.110674 -0.309164 -0.548201 0 0 0 7.15218 8.81626 8.13684 0.01 
242 1 25 0.145248 -0.207615 0.0692719 0.146612 -0.348067 -0.537638 0 0 0 7.15218 8.81626 8.13684 0.01 
243 1 25 0.147309 -0.203597 0.0770567 0.182549 -0.38697 -0.527075 0 0 0 7.15218 8.81626 8.13684 0.01 
244 1 25 0.149371 -0.199578 0.0848416 0.218487 -0.425873 -0.516512 0 0 0 7.15218 8.81626 8.13684 0.01 
245 1 25 0.151433 -0.19556 0.0926264 0.254424 -0.464776 -0.505949 0 0 0 7.15218 8.81626 8.13684 0.01 
246 1 25 0.153494 -0.191542 0.100411 0.290361 -0.503679 -0.495386 0 0 0 7.15218 8.81626 8.13684 0.01 
247 1 25 0.155556 -0.187524 0.108196 0.326299 -0.542582 -0.484823 0.152015 -0.139723 0.146916 7.15218 8.81626 8.13684 0.01 
248 1 25 0.157618 -0.183505 0.115981 0.362236 -0.581485 -0.47426 0 0 0 7.15218 8.81626 8.13684 0.01 
249 1 25 0.159679 -0.179487 0.123766 0.398174 -0.620388 -0.463697 0 0 0 7.15218 8.81626 8.13684 0.01 
250 1 25 0.161741 -0.175469 0.131551 0.434111 -0.659292 -0.453134 0 0 0 7.15218 8.81626 8.13684 0.01 
251 1 26 -0.00121939 -0.173972 0.00988728 -0.0400308 -0.0642952 0.0042584 0.205256 0.408765 0.91481 0.270594 -1.13121 3.67507 0.01 
252 1 26 -0.000748281 -0.180848 0.0156755 -0.0213099 -0.0641301 0.0029308 -0.132407 0.033967 0.0975928 0.270594 -1.13121 3.67507 0.01 
253 1 26 -0.000277173 -0.187723 0.0214637 -0.00258907 -0.063965 0.00160321 -0.269742 0.81706 1.03135 0.270594 -1.13121 3.67507 0.01 
254 1 26 0.000193935 -0.194599 0.0272519 0.0161318 -0.0637998 0.000275622 0.372405 -0.291128 -0.5521 0.270594 -1.13121 3.67507 0.01 
255 1 26 0.000665044 -0.201475 0.0330401 0.0348526 -0.0636347 -0.00105197 0.149726 -1.08631 -2.88595 0.270594 -1.13121 3.67507 0.01 