ITEM: TIMESTEP
38000
ITEM: NUMBER OF ATOMS
6300
ITEM: BOX BOUNDS mm mm mm
-0.375832 0.385109
-0.376307 0.385366
0 0.5
ITEM: ATOMS id type mol x y z vx vy vz fx fy fz omegax omegay omegaz radius 
1 1 1 -0.15259 -0.113273 0.0809585 -0.322177 -0.0676857 -0.0838919 -0.740868 0.117659 -0.0193262 6.61118 5.29486 -2.60131 0.01 
2 1 1 -0.152329 -0.121003 0.0855612 -0.317914 -0.0987916 -0.136372 0.113729 -0.0306064 0.0890294 6.61118 5.29486 -2.60131 0.01 
3 1 1 -0.152069 -0.128733 0.0901638 -0.313651 -0.129897 -0.188853 -0.454132 -0.131474 -0.745956 6.61118 5.29486 -2.60131 0.01 
4 1 1 -0.151809 -0.136463 0.0947664 -0.309389 -0.161003 -0.241333 0.200142 0.152027 0.528423 6.61118 5.29486 -2.60131 0.01 
5 1 1 -0.151549 -0.144192 0.099369 -0.305126 -0.192109 -0.293814 0 0 0 6.61118 5.29486 -2.60131 0.01 
6 1 1 -0.151288 -0.151922 0.103972 -0.300863 -0.223215 -0.346295 0 0 0 6.61118 5.29486 -2.60131 0.01 
7 1 1 -0.151028 -0.159652 0.108574 -0.2966 -0.254321 -0.398775 0 0 0 6.61118 5.29486 -2.60131 0.01 
8 1 1 -0.150768 -0.167381 0.113177 -0.292337 -0.285427 -0.451256 1.14942 1.4889 1.06459 6.61118 5.29486 -2.60131 0.01 
9 1 1 -0.150507 -0.175111 0.11778 -0.288074 -0.316532 -0.503736 0 0 0 6.61118 5.29486 -2.60131 0.01 
10 1 1 -0.150247 -0.182841 0.122382 -0.283811 -0.347638 -0.556217 0 0 0 6.61118 5.29486 -2.60131 0.01 
11 1 2 -0.0213243 -0.128696 0.023558 0.00827702 0.059338 -0.0328477 -0.188379 -0.0458845 -0.0746905 4.85484 -1.82845 -0.820697 0.01 
12 1 2 -0.0246047 -0.131261 0.0315368 -0.00841663 0.0232944 -0.0512966 0.495454 0.4774 0.879727 4.85484 -1.82845 -0.820697 0.01 
13 1 2 -0.0278852 -0.133826 0.0395156 -0.0251103 -0.0127492 -0.0697456 0 0 0 4.85484 -1.82845 -0.820697 0.01 
14 1 2 -0.0311656 -0.13639 0.0474944 -0.0418039 -0.0487929 -0.0881946 0 0 0 4.85484 -1.82845 -0.820697 0.01 
15 1 2 -0.0344461 -0.138955 0.0554732 -0.0584976 -0.0848365 -0.106644 -0.421412 -0.497486 -0.699028 4.85484 -1.82845 -0.820697 0.01 
16 1 2 -0.0377265 -0.14152 0.063452 -0.0751913 -0.12088 -0.125093 -0.000396573 0.016858 0.00716648 4.85484 -1.82845 -0.820697 0.01 
17 1 2 -0.041007 -0.144084 0.0714308 -0.0918849 -0.156924 -0.143541 0 0 0 4.85484 -1.82845 -0.820697 0.01 
18 1 2 -0.0442874 -0.146649 0.0794096 -0.108579 -0.192967 -0.16199 0 0 0 4.85484 -1.82845 -0.820697 0.01 
19 1 2 -0.0475679 -0.149213 0.0873884 -0.125272 -0.229011 -0.180439 0 0 0 4.85484 -1.82845 -0.820697 0.01 
20 1 2 -0.0508483 -0.151778 0.0953673 -0.141966 -0.265055 -0.198888 0.0762212 0.097775 0.123333 4.85484 -1.82845 -0.820697 0.01 
21 1 3 -0.0280656 -0.0418434 0.0110056 0.0178739 0.020127 0.0230948 0.023475 0.0182943 0.0214828 -3.95455 -8.37938 5.4257 0.01 
22 1 3 -0.0322795 -0.0474277 0.0166677 0.000728319 0.0196547 0.00986875 0 0 0 -3.95455 -8.37938 5.4257 0.01 
23 1 3 -0.0364934 -0.053012 0.0223297 -0.0164172 0.0191823 -0.00335727 0.0950877 0.00200869 0.18986 -3.95455 -8.37938 5.4257 0.01 
24 1 3 -0.0407072 -0.0585964 0.0279918 -0.0335628 0.01871 -0.0165833 0 0 0 -3.95455 -8.37938 5.4257 0.01 
25 1 3 -0.0449211 -0.0641807 0.0336538 -0.0507083 0.0182377 -0.0298093 0 0 0 -3.95455 -8.37938 5.4257 0.01 
26 1 3 -0.0491349 -0.069765 0.0393158 -0.0678538 0.0177654 -0.0430353 0 0 0 -3.95455 -8.37938 5.4257 0.01 
27 1 3 -0.0533488 -0.0753493 0.0449779 -0.0849994 0.0172931 -0.0562613 -0.0456223 0.0703947 0.265279 -3.95455 -8.37938 5.4257 0.01 
28 1 3 -0.0575626 -0.0809337 0.0506399 -0.102145 0.0168208 -0.0694873 0 0 0 -3.95455 -8.37938 5.4257 0.01 
29 1 3 -0.0617765 -0.086518 0.056302 -0.11929 0.0163485 -0.0827134 0 0 0 -3.95455 -8.37938 5.4257 0.01 
30 1 3 -0.0659903 -0.0921023 0.061964 -0.136436 0.0158762 -0.0959394 0.194088 -0.408408 -0.405047 -3.95455 -8.37938 5.4257 0.01 
31 1 4 -0.0904004 0.12275 0.0102662 -0.14014 -0.0156957 0.0471205 -2.06375 2.46455 -4.85746 -2.95142 2.3843 2.41412 0.01 
32 1 4 -0.0934059 0.128897 0.0161125 -0.141041 -0.0056964 0.0361435 0 0 0 -2.95142 2.3843 2.41412 0.01 
33 1 4 -0.0964114 0.135044 0.0219588 -0.141941 0.00430292 0.0251666 2.0228 -2.63925 7.11138 -2.95142 2.3843 2.41412 0.01 
34 1 4 -0.0994169 0.141191 0.0278051 -0.142842 0.0143022 0.0141896 0.351075 -0.543803 1.40558 -2.95142 2.3843 2.41412 0.01 
35 1 4 -0.102422 0.147339 0.0336514 -0.143743 0.0243016 0.00321268 0 0 0 -2.95142 2.3843 2.41412 0.01 
36 1 4 -0.105428 0.153486 0.0394977 -0.144643 0.0343009 -0.00776427 0.186341 0.0171018 -0.0491855 -2.95142 2.3843 2.41412 0.01 
37 1 4 -0.108433 0.159633 0.045344 -0.145544 0.0443002 -0.0187412 0.230327 0.0180088 -0.0602964 -2.95142 2.3843 2.41412 0.01 
38 1 4 -0.111439 0.16578 0.0511903 -0.146445 0.0542995 -0.0297182 0.0801452 0.00599574 -0.0210619 -2.95142 2.3843 2.41412 0.01 
39 1 4 -0.114444 0.171927 0.0570366 -0.147345 0.0642989 -0.0406951 -1.14709 0.732223 -2.70993 -2.95142 2.3843 2.41412 0.01 
40 1 4 -0.11745 0.178075 0.0628829 -0.148246 0.0742982 -0.0516721 -0.0115399 0.0211803 -0.135181 -2.95142 2.3843 2.41412 0.01 
41 1 5 0.0798934 -0.135805 0.00985769 0.0102586 -0.0182935 -0.00881373 0.397274 0.308237 1.48559 0.667424 1.47353 1.09026 0.01 
42 1 5 0.0814553 -0.135114 0.0186941 0.0225253 -0.0224882 -0.0106537 -0.0889501 -0.263831 -0.118878 0.667424 1.47353 1.09026 0.01 
43 1 5 0.0830172 -0.134422 0.0275305 0.034792 -0.026683 -0.0124936 0 0 0 0.667424 1.47353 1.09026 0.01 
44 1 5 0.0845791 -0.133731 0.0363669 0.0470587 -0.0308777 -0.0143336 0 0 0 0.667424 1.47353 1.09026 0.01 
45 1 5 0.086141 -0.133039 0.0452033 0.0593254 -0.0350724 -0.0161735 0 0 0 0.667424 1.47353 1.09026 0.01 
46 1 5 0.087703 -0.132348 0.0540398 0.0715922 -0.0392672 -0.0180135 -0.29515 -0.0309698 0.163585 0.667424 1.47353 1.09026 0.01 
47 1 5 0.0892649 -0.131656 0.0628762 0.0838589 -0.0434619 -0.0198534 0 0 0 0.667424 1.47353 1.09026 0.01 
48 1 5 0.0908268 -0.130965 0.0717126 0.0961256 -0.0476567 -0.0216933 0 0 0 0.667424 1.47353 1.09026 0.01 
49 1 5 0.0923887 -0.130273 0.080549 0.108392 -0.0518514 -0.0235333 0 0 0 0.667424 1.47353 1.09026 0.01 
50 1 5 0.0939506 -0.129581 0.0893854 0.120659 -0.0560462 -0.0253732 0.0710217 0.0947531 -0.639731 0.667424 1.47353 1.09026 0.01 
51 1 6 0.191934 -0.0399996 0.0221373 -0.0299362 -0.0150091 -0.0139247 0 0 0 13.8068 8.49932 0.183613 0.01 
52 1 6 0.184934 -0.0456244 0.0227405 -0.0237771 -0.0246218 -0.0320914 -0.0217528 0.0205797 0.0690936 13.8068 8.49932 0.183613 0.01 
53 1 6 0.177934 -0.0512492 0.0233436 -0.017618 -0.0342346 -0.0502581 0 0 0 13.8068 8.49932 0.183613 0.01 
54 1 6 0.170934 -0.056874 0.0239468 -0.0114589 -0.0438474 -0.0684248 0 0 0 13.8068 8.49932 0.183613 0.01 
55 1 6 0.163934 -0.0624988 0.0245499 -0.00529983 -0.0534601 -0.0865916 0 0 0 13.8068 8.49932 0.183613 0.01 
56 1 6 0.156934 -0.0681236 0.0251531 0.000859273 -0.0630729 -0.104758 0 0 0 13.8068 8.49932 0.183613 0.01 
57 1 6 0.149935 -0.0737484 0.0257562 0.00701837 -0.0726857 -0.122925 0 0 0 13.8068 8.49932 0.183613 0.01 
58 1 6 0.142935 -0.0793732 0.0263593 0.0131775 -0.0822984 -0.141092 0.255274 -0.191083 0.443619 13.8068 8.49932 0.183613 0.01 
59 1 6 0.135935 -0.084998 0.0269625 0.0193366 -0.0919112 -0.159258 0 0 0 13.8068 8.49932 0.183613 0.01 
60 1 6 0.128935 -0.0906228 0.0275656 0.0254957 -0.101524 -0.177425 0 0 0 13.8068 8.49932 0.183613 0.01 
61 1 7 -0.045341 0.226883 0.0100701 0.0773675 0.0427707 0.05661 0.00107325 0.00296916 -0.00374593 0.123967 7.75447 11.179 0.01 
62 1 7 -0.0442217 0.233262 0.016319 0.0545072 0.0545091 0.048721 0.00468541 0.0117625 -0.0150085 0.123967 7.75447 11.179 0.01 
63 1 7 -0.0431024 0.239642 0.0225678 0.0316469 0.0662475 0.040832 0.00549535 0.012598 -0.016273 0.123967 7.75447 11.179 0.01 
64 1 7 -0.041983 0.246021 0.0288167 0.00878654 0.0779859 0.032943 0 0 0 0.123967 7.75447 11.179 0.01 
65 1 7 -0.0408637 0.252401 0.0350656 -0.0140738 0.0897244 0.025054 0 0 0 0.123967 7.75447 11.179 0.01 
66 1 7 -0.0397444 0.25878 0.0413145 -0.0369341 0.101463 0.017165 0.766854 -0.467707 0.954498 0.123967 7.75447 11.179 0.01 
67 1 7 -0.038625 0.26516 0.0475634 -0.0597944 0.113201 0.00927606 0 0 0 0.123967 7.75447 11.179 0.01 
68 1 7 -0.0375057 0.27154 0.0538123 -0.0826547 0.12494 0.00138708 0 0 0 0.123967 7.75447 11.179 0.01 
69 1 7 -0.0363864 0.277919 0.0600612 -0.105515 0.136678 -0.00650191 0 0 0 0.123967 7.75447 11.179 0.01 
70 1 7 -0.035267 0.284299 0.0663101 -0.128375 0.148416 -0.0143909 0 0 0 0.123967 7.75447 11.179 0.01 
71 1 8 0.151242 -0.189219 0.0860813 0.219671 -0.351347 -0.306535 0 0 0 4.37753 7.98567 -1.09418 0.01 
72 1 8 0.159717 -0.187251 0.0883815 0.240194 -0.37069 -0.365602 0 0 0 4.37753 7.98567 -1.09418 0.01 
73 1 8 0.168193 -0.185283 0.0906817 0.260716 -0.390033 -0.424669 0 0 0 4.37753 7.98567 -1.09418 0.01 
74 1 8 0.176669 -0.183315 0.0929819 0.281238 -0.409376 -0.483736 0 0 0 4.37753 7.98567 -1.09418 0.01 
75 1 8 0.185144 -0.181347 0.0952821 0.30176 -0.428719 -0.542803 0 0 0 4.37753 7.98567 -1.09418 0.01 
76 1 8 0.19362 -0.179378 0.0975823 0.322283 -0.448062 -0.60187 0 0 0 4.37753 7.98567 -1.09418 0.01 
77 1 8 0.202095 -0.17741 0.0998825 0.342805 -0.467405 -0.660937 0 0 0 4.37753 7.98567 -1.09418 0.01 
78 1 8 0.210571 -0.175442 0.102183 0.363327 -0.486748 -0.720004 0 0 0 4.37753 7.98567 -1.09418 0.01 
79 1 8 0.219046 -0.173474 0.104483 0.383849 -0.506091 -0.779071 0 0 0 4.37753 7.98567 -1.09418 0.01 
80 1 8 0.227522 -0.171505 0.106783 0.404372 -0.525434 -0.838138 0 0 0 4.37753 7.98567 -1.09418 0.01 
81 1 9 -0.133453 0.0293159 0.050024 -0.0457619 -0.0477742 -0.203363 0.00968784 -0.00999259 0.275757 -1.84066 -1.86627 1.14977 0.01 
82 1 9 -0.127238 0.0307071 0.0563835 -0.0592299 -0.0289232 -0.194325 0 0 0 -1.84066 -1.86627 1.14977 0.01 
83 1 9 -0.121023 0.0320983 0.062743 -0.072698 -0.0100722 -0.185288 0 0 0 -1.84066 -1.86627 1.14977 0.01 
84 1 9 -0.114809 0.0334896 0.0691024 -0.086166 0.00877884 -0.17625 0 0 0 -1.84066 -1.86627 1.14977 0.01 
85 1 9 -0.108594 0.0348808 0.0754619 -0.0996341 0.0276299 -0.167213 0 0 0 -1.84066 -1.86627 1.14977 0.01 
86 1 9 -0.102379 0.036272 0.0818213 -0.113102 0.0464809 -0.158176 0 0 0 -1.84066 -1.86627 1.14977 0.01 
87 1 9 -0.0961647 0.0376633 0.0881808 -0.12657 0.0653319 -0.149138 0 0 0 -1.84066 -1.86627 1.14977 0.01 
88 1 9 -0.08995 0.0390545 0.0945402 -0.140038 0.0841829 -0.140101 0 0 0 -1.84066 -1.86627 1.14977 0.01 
89 1 9 -0.0837354 0.0404457 0.1009 -0.153506 0.103034 -0.131063 0 0 0 -1.84066 -1.86627 1.14977 0.01 
90 1 9 -0.0775207 0.0418369 0.107259 -0.166974 0.121885 -0.122026 -0.209402 0.0634554 0.524682 -1.84066 -1.86627 1.14977 0.01 
91 1 10 0.07632 0.263012 0.0850495 0.206303 0.604528 -0.476747 -0.23786 0.0619918 -0.165597 14.9373 -11.866 -7.99522 0.01 
92 1 10 0.069168 0.266426 0.0893147 0.182989 0.598001 -0.510617 0 0 0 14.9373 -11.866 -7.99522 0.01 
93 1 10 0.0620159 0.26984 0.0935799 0.159675 0.591473 -0.544486 0 0 0 14.9373 -11.866 -7.99522 0.01 
94 1 10 0.0548638 0.273254 0.0978451 0.13636 0.584945 -0.578355 0 0 0 14.9373 -11.866 -7.99522 0.01 
95 1 10 0.0477117 0.276668 0.10211 0.113046 0.578417 -0.612225 0 0 0 14.9373 -11.866 -7.99522 0.01 
96 1 10 0.0405597 0.280082 0.106375 0.0897317 0.571889 -0.646094 0 0 0 14.9373 -11.866 -7.99522 0.01 
97 1 10 0.0334076 0.283496 0.110641 0.0664174 0.565361 -0.679963 0 0 0 14.9373 -11.866 -7.99522 0.01 
98 1 10 0.0262555 0.28691 0.114906 0.0431031 0.558833 -0.713833 0 0 0 14.9373 -11.866 -7.99522 0.01 
99 1 10 0.0191034 0.290325 0.119171 0.0197888 0.552305 -0.747702 0 0 0 14.9373 -11.866 -7.99522 0.01 
100 1 10 0.0119514 0.293739 0.123436 -0.00352547 0.545777 -0.781571 0 0 0 14.9373 -11.866 -7.99522 0.01 
101 1 11 -0.24735 -0.0891015 0.0148829 -0.10064 -0.13223 0.151185 0 0 0 6.841 -0.685267 -5.29629 0.01 
102 1 11 -0.248781 -0.0962577 0.0201498 -0.142151 -0.160683 0.101249 0 0 0 6.841 -0.685267 -5.29629 0.01 
103 1 11 -0.250212 -0.103414 0.0254168 -0.183662 -0.189137 0.0513125 0 0 0 6.841 -0.685267 -5.29629 0.01 
104 1 11 -0.251642 -0.11057 0.0306838 -0.225173 -0.21759 0.00137611 0 0 0 6.841 -0.685267 -5.29629 0.01 
105 1 11 -0.253073 -0.117726 0.0359507 -0.266684 -0.246043 -0.0485603 -0.451178 0.000741268 0.00585179 6.841 -0.685267 -5.29629 0.01 
106 1 11 -0.254504 -0.124883 0.0412177 -0.308195 -0.274496 -0.0984967 0 0 0 6.841 -0.685267 -5.29629 0.01 
107 1 11 -0.255935 -0.132039 0.0464846 -0.349705 -0.30295 -0.148433 0 0 0 6.841 -0.685267 -5.29629 0.01 
108 1 11 -0.257366 -0.139195 0.0517516 -0.391216 -0.331403 -0.198369 0 0 0 6.841 -0.685267 -5.29629 0.01 
109 1 11 -0.258796 -0.146351 0.0570186 -0.432727 -0.359856 -0.248306 0 0 0 6.841 -0.685267 -5.29629 0.01 
110 1 11 -0.260227 -0.153508 0.0622855 -0.474238 -0.388309 -0.298242 0 0 0 6.841 -0.685267 -5.29629 0.01 
111 1 12 0.120476 0.0448507 0.0487214 0.0542801 0.0269231 -0.158478 0.127073 -0.141686 0.032708 0.214852 1.20969 -3.01116 0.01 
112 1 12 0.122571 0.0485566 0.0566508 0.0750312 0.0189098 -0.160217 0 0 0 0.214852 1.20969 -3.01116 0.01 
113 1 12 0.124667 0.0522625 0.0645803 0.0957823 0.0108965 -0.161955 -0.000811806 -0.00121348 0.000618276 0.214852 1.20969 -3.01116 0.01 
114 1 12 0.126762 0.0559683 0.0725097 0.116533 0.00288321 -0.163694 0 0 0 0.214852 1.20969 -3.01116 0.01 
115 1 12 0.128858 0.0596742 0.0804391 0.137285 -0.0051301 -0.165433 -0.10288 0.0636603 0.0366498 0.214852 1.20969 -3.01116 0.01 
116 1 12 0.130953 0.0633801 0.0883685 0.158036 -0.0131434 -0.167171 0 0 0 0.214852 1.20969 -3.01116 0.01 
117 1 12 0.133049 0.0670859 0.0962979 0.178787 -0.0211567 -0.16891 0.0531571 -0.0974147 0.0154294 0.214852 1.20969 -3.01116 0.01 
118 1 12 0.135144 0.0707918 0.104227 0.199538 -0.02917 -0.170648 0 0 0 0.214852 1.20969 -3.01116 0.01 
119 1 12 0.137239 0.0744977 0.112157 0.220289 -0.0371833 -0.172387 -0.346897 0.214236 -0.0159872 0.214852 1.20969 -3.01116 0.01 
120 1 12 0.139335 0.0782036 0.120086 0.24104 -0.0451966 -0.174126 0 0 0 0.214852 1.20969 -3.01116 0.01 
121 1 13 -0.00215327 0.291764 0.0653844 -0.146597 0.114557 -0.0902838 -0.0210071 -0.00338679 0.00700285 -2.2765 -7.97091 6.79885 0.01 
122 1 13 -0.00630099 0.286591 0.0714705 -0.15994 0.100212 -0.111569 0 0 0 -2.2765 -7.97091 6.79885 0.01 
123 1 13 -0.0104487 0.281419 0.0775566 -0.173284 0.0858674 -0.132855 0 0 0 -2.2765 -7.97091 6.79885 0.01 
124 1 13 -0.0145964 0.276246 0.0836426 -0.186627 0.0715225 -0.154141 0 0 0 -2.2765 -7.97091 6.79885 0.01 
125 1 13 -0.0187442 0.271073 0.0897287 -0.199971 0.0571777 -0.175426 0 0 0 -2.2765 -7.97091 6.79885 0.01 
126 1 13 -0.0228919 0.265901 0.0958148 -0.213314 0.0428328 -0.196712 0 0 0 -2.2765 -7.97091 6.79885 0.01 
127 1 13 -0.0270396 0.260728 0.101901 -0.226658 0.028488 -0.217998 0 0 0 -2.2765 -7.97091 6.79885 0.01 
128 1 13 -0.0311873 0.255555 0.107987 -0.240001 0.0141431 -0.239283 0 0 0 -2.2765 -7.97091 6.79885 0.01 
129 1 13 -0.035335 0.250383 0.114073 -0.253345 -0.000201735 -0.260569 0 0 0 -2.2765 -7.97091 6.79885 0.01 
130 1 13 -0.0394828 0.24521 0.120159 -0.266688 -0.0145466 -0.281855 0 0 0 -2.2765 -7.97091 6.79885 0.01 
131 1 14 -0.0466802 0.126979 0.012354 0.0523857 -0.0345502 0.0717244 0.153415 0.226866 -0.251315 -3.11989 -1.51114 3.23185 0.01 
132 1 14 -0.0462985 0.133511 0.0185331 0.0219362 -0.0140386 0.0519206 0.196825 0.274487 -0.318932 -3.11989 -1.51114 3.23185 0.01 
133 1 14 -0.0459168 0.140044 0.0247121 -0.0085133 0.00647309 0.0321169 -1.51673 -0.224507 3.50836 -3.11989 -1.51114 3.23185 0.01 
134 1 14 -0.0455351 0.146576 0.0308912 -0.0389628 0.0269847 0.0123131 0.00866782 0.661537 -0.791774 -3.11989 -1.51114 3.23185 0.01 
135 1 14 -0.0451534 0.153109 0.0370703 -0.0694123 0.0474964 -0.00749066 0.44034 0.17632 -0.250066 -3.11989 -1.51114 3.23185 0.01 
136 1 14 -0.0447716 0.159641 0.0432494 -0.0998617 0.0680081 -0.0272944 0.540627 0.0689689 -0.140019 -3.11989 -1.51114 3.23185 0.01 
137 1 14 -0.0443899 0.166174 0.0494285 -0.130311 0.0885197 -0.0470982 0.562083 0.00547004 -0.0653165 -3.11989 -1.51114 3.23185 0.01 
138 1 14 -0.0440082 0.172706 0.0556075 -0.160761 0.109031 -0.066902 0.437884 -0.0198531 -0.0189432 -3.11989 -1.51114 3.23185 0.01 
139 1 14 -0.0436265 0.179239 0.0617866 -0.19121 0.129543 -0.0867057 0 0 0 -3.11989 -1.51114 3.23185 0.01 
140 1 14 -0.0432448 0.185771 0.0679657 -0.22166 0.150055 -0.10651 0.110267 -0.315719 -1.12761 -3.11989 -1.51114 3.23185 0.01 
141 1 15 -0.00860843 -0.061063 0.00981792 -0.00140137 -0.0174006 0.0144862 -0.592928 0.607679 1.6924 -2.51707 -3.9667 5.41513 0.01 
142 1 15 -0.0130055 -0.0646618 0.0167975 -0.00959966 -0.0236433 0.00610263 0.113049 -0.578063 -0.925802 -2.51707 -3.9667 5.41513 0.01 
143 1 15 -0.0174026 -0.0682605 0.0237771 -0.017798 -0.0298859 -0.00228098 -0.0368875 -1.15946 -1.55456 -2.51707 -3.9667 5.41513 0.01 
144 1 15 -0.0217997 -0.0718593 0.0307567 -0.0259962 -0.0361285 -0.0106646 0.496318 1.03341 1.17418 -2.51707 -3.9667 5.41513 0.01 
145 1 15 -0.0261967 -0.075458 0.0377363 -0.0341945 -0.0423712 -0.0190482 0.423688 0.620613 1.12529 -2.51707 -3.9667 5.41513 0.01 
146 1 15 -0.0305938 -0.0790568 0.0447159 -0.0423928 -0.0486138 -0.0274318 -0.0945955 -0.0143209 -0.086592 -2.51707 -3.9667 5.41513 0.01 
147 1 15 -0.0349909 -0.0826555 0.0516955 -0.0505911 -0.0548564 -0.0358154 -0.118954 -0.0180458 -0.106711 -2.51707 -3.9667 5.41513 0.01 
148 1 15 -0.039388 -0.0862542 0.0586751 -0.0587894 -0.061099 -0.044199 -0.135488 -0.0204523 -0.119145 -2.51707 -3.9667 5.41513 0.01 
149 1 15 -0.0437851 -0.089853 0.0656547 -0.0669877 -0.0673417 -0.0525826 -0.142901 -0.0213229 -0.12323 -2.51707 -3.9667 5.41513 0.01 
150 1 15 -0.0481821 -0.0934517 0.0726343 -0.075186 -0.0735843 -0.0609662 0.0497735 -0.00288812 -0.0768922 -2.51707 -3.9667 5.41513 0.01 
151 1 16 -0.0476476 0.184571 0.0138965 -0.0237265 0.0967377 -0.0131129 -0.762363 0.355446 -1.5061 -1.79823 -4.52685 -1.59565 0.01 
152 1 16 -0.0461099 0.191805 0.0190254 -0.0354011 0.103507 -0.0191604 0 0 0 -1.79823 -4.52685 -1.59565 0.01 
153 1 16 -0.0445722 0.199039 0.0241542 -0.0470758 0.110276 -0.025208 -0.0548862 -0.171156 0.273987 -1.79823 -4.52685 -1.59565 0.01 
154 1 16 -0.0430345 0.206273 0.0292831 -0.0587505 0.117046 -0.0312555 -0.15157 -0.217622 0.547778 -1.79823 -4.52685 -1.59565 0.01 
155 1 16 -0.0414969 0.213507 0.0344119 -0.0704252 0.123815 -0.0373031 0.627928 -0.658926 1.35547 -1.79823 -4.52685 -1.59565 0.01 
156 1 16 -0.0399592 0.220741 0.0395408 -0.0820999 0.130584 -0.0433506 1.03607 -0.558722 1.48472 -1.79823 -4.52685 -1.59565 0.01 
157 1 16 -0.0384215 0.227975 0.0446697 -0.0937745 0.137353 -0.0493982 0.597862 -0.0978311 0.930135 -1.79823 -4.52685 -1.59565 0.01 
158 1 16 -0.0368839 0.235209 0.0497985 -0.105449 0.144123 -0.0554457 -0.541792 0.149748 0.30738 -1.79823 -4.52685 -1.59565 0.01 
159 1 16 -0.0353462 0.242443 0.0549274 -0.117124 0.150892 -0.0614932 -0.759111 0.911663 -2.47653 -1.79823 -4.52685 -1.59565 0.01 
160 1 16 -0.0338085 0.249677 0.0600563 -0.128799 0.157661 -0.0675408 -0.112327 0.00236308 0.04604 -1.79823 -4.52685 -1.59565 0.01 
161 1 17 0.0751699 0.0894904 0.00992445 0.0522358 0.0355824 0.0142975 0.490207 -0.244117 -0.504267 0.364214 0.426581 -0.694579 0.01 
162 1 17 0.0796207 0.0877907 0.01756 0.0543124 0.02971 0.0117798 0 0 0 0.364214 0.426581 -0.694579 0.01 
163 1 17 0.0840715 0.086091 0.0251955 0.056389 0.0238376 0.00926212 -0.232543 -0.387579 0.31855 0.364214 0.426581 -0.694579 0.01 
164 1 17 0.0885223 0.0843913 0.0328311 0.0584656 0.0179652 0.00674445 -0.249712 0.509628 0.745246 0.364214 0.426581 -0.694579 0.01 
165 1 17 0.0929731 0.0826916 0.0404666 0.0605423 0.0120928 0.00422677 -0.310605 0.331819 0.721255 0.364214 0.426581 -0.694579 0.01 
166 1 17 0.0974239 0.080992 0.0481021 0.0626189 0.00622037 0.00170909 0 0 0 0.364214 0.426581 -0.694579 0.01 
167 1 17 0.101875 0.0792923 0.0557377 0.0646955 0.000347968 -0.000808586 0 0 0 0.364214 0.426581 -0.694579 0.01 
168 1 17 0.106326 0.0775926 0.0633732 0.0667721 -0.00552444 -0.00332626 0 0 0 0.364214 0.426581 -0.694579 0.01 
169 1 17 0.110776 0.0758929 0.0710087 0.0688487 -0.0113968 -0.00584394 0 0 0 0.364214 0.426581 -0.694579 0.01 
170 1 17 0.115227 0.0741933 0.0786443 0.0709253 -0.0172692 -0.00836162 0.157432 -0.344506 -0.332973 0.364214 0.426581 -0.694579 0.01 
171 1 18 -0.328057 -0.0427729 0.00990515 -0.0675173 -0.0895027 -0.0262761 0.0258259 0.63616 1.27337 -4.52693 -5.88646 -4.96682 0.01 
172 1 18 -0.326712 -0.0396083 0.0182223 -0.100758 -0.0585344 -0.0326818 -0.17677 -0.61085 -0.0070224 -4.52693 -5.88646 -4.96682 0.01 
173 1 18 -0.325366 -0.0364437 0.0265395 -0.133998 -0.027566 -0.0390875 0 0 0 -4.52693 -5.88646 -4.96682 0.01 
174 1 18 -0.324021 -0.0332791 0.0348566 -0.167239 0.00340234 -0.0454932 0 0 0 -4.52693 -5.88646 -4.96682 0.01 
175 1 18 -0.322675 -0.0301145 0.0431738 -0.20048 0.0343707 -0.051899 0 0 0 -4.52693 -5.88646 -4.96682 0.01 
176 1 18 -0.32133 -0.0269499 0.0514909 -0.23372 0.065339 -0.0583047 0 0 0 -4.52693 -5.88646 -4.96682 0.01 
177 1 18 -0.319984 -0.0237853 0.0598081 -0.266961 0.0963074 -0.0647104 0 0 0 -4.52693 -5.88646 -4.96682 0.01 
178 1 18 -0.318639 -0.0206208 0.0681252 -0.300201 0.127276 -0.0711162 0 0 0 -4.52693 -5.88646 -4.96682 0.01 
179 1 18 -0.317293 -0.0174562 0.0764424 -0.333442 0.158244 -0.0775219 0 0 0 -4.52693 -5.88646 -4.96682 0.01 
180 1 18 -0.315948 -0.0142916 0.0847595 -0.366682 0.189212 -0.0839276 -0.380841 -0.537989 -0.400381 -4.52693 -5.88646 -4.96682 0.01 
181 1 19 0.0170334 0.226841 0.078402 0.0996846 0.3014 -0.198444 0 0 0 0.795342 0.785579 -2.60396 0.01 
182 1 19 0.0171308 0.21977 0.0839694 0.0856465 0.296718 -0.204144 0.260911 0.624707 1.28078 0.795342 0.785579 -2.60396 0.01 
183 1 19 0.0172282 0.2127 0.0895368 0.0716084 0.292037 -0.209844 0 0 0 0.795342 0.785579 -2.60396 0.01 
184 1 19 0.0173256 0.205629 0.0951043 0.0575704 0.287355 -0.215544 -0.43038 -0.985948 -0.306243 0.795342 0.785579 -2.60396 0.01 
185 1 19 0.0174229 0.198558 0.100672 0.0435323 0.282673 -0.221244 0 0 0 0.795342 0.785579 -2.60396 0.01 
186 1 19 0.0175203 0.191488 0.106239 0.0294942 0.277992 -0.226945 0 0 0 0.795342 0.785579 -2.60396 0.01 
187 1 19 0.0176177 0.184417 0.111807 0.0154562 0.27331 -0.232645 0 0 0 0.795342 0.785579 -2.60396 0.01 
188 1 19 0.0177151 0.177346 0.117374 0.0014181 0.268629 -0.238345 0 0 0 0.795342 0.785579 -2.60396 0.01 
189 1 19 0.0178125 0.170276 0.122941 -0.01262 0.263947 -0.244045 0 0 0 0.795342 0.785579 -2.60396 0.01 
190 1 19 0.0179099 0.163205 0.128509 -0.026658 0.259265 -0.249745 -0.147068 0.161151 0.469628 0.795342 0.785579 -2.60396 0.01 
191 1 20 -0.00768318 0.195323 0.0122916 -0.0836515 0.0842474 -0.0825873 0.157422 -0.0661407 -0.321027 0.826365 -4.15061 -1.42931 0.01 
192 1 20 -0.00588024 0.202636 0.0172182 -0.0936473 0.0775993 -0.0690609 -0.210368 -0.301904 -0.654489 0.826365 -4.15061 -1.42931 0.01 
193 1 20 -0.00407731 0.209949 0.0221447 -0.103643 0.0709512 -0.0555345 -0.0829366 -0.0983236 -0.25701 0.826365 -4.15061 -1.42931 0.01 
194 1 20 -0.00227438 0.217262 0.0270712 -0.113639 0.0643032 -0.0420081 0.141561 -0.0765363 0.0147381 0.826365 -4.15061 -1.42931 0.01 
195 1 20 -0.000471445 0.224575 0.0319978 -0.123634 0.0576551 -0.0284817 0.145226 -0.00727611 0.568145 0.826365 -4.15061 -1.42931 0.01 
196 1 20 0.00133149 0.231888 0.0369243 -0.13363 0.051007 -0.0149553 0.20539 0.0249431 0.641718 0.826365 -4.15061 -1.42931 0.01 
197 1 20 0.00313442 0.239201 0.0418509 -0.143626 0.0443589 -0.00142893 0.113474 0.0141676 0.237257 0.826365 -4.15061 -1.42931 0.01 
198 1 20 0.00493735 0.246514 0.0467774 -0.153622 0.0377108 0.0120975 0.121992 0.421257 -0.0637226 0.826365 -4.15061 -1.42931 0.01 
199 1 20 0.00674029 0.253826 0.051704 -0.163617 0.0310627 0.0256239 -0.0520499 0.150042 -0.34946 0.826365 -4.15061 -1.42931 0.01 
200 1 20 0.00854322 0.261139 0.0566305 -0.173613 0.0244146 0.0391503 0 0 0 0.826365 -4.15061 -1.42931 0.01 
201 1 21 0.012621 0.00376227 0.0110143 -0.0988766 -0.0245285 -0.0182966 0.304217 0.76125 -0.739714 -1.52032 3.03406 0.897255 0.01 
202 1 21 0.0105729 0.0105414 0.0165685 -0.0881075 -0.0179221 -0.022389 0 0 0 -1.52032 3.03406 0.897255 0.01 
203 1 21 0.00852481 0.0173205 0.0221227 -0.0773384 -0.0113156 -0.0264813 -0.00589425 -0.276272 0.383097 -1.52032 3.03406 0.897255 0.01 
204 1 21 0.00647669 0.0240996 0.0276768 -0.0665693 -0.00470915 -0.0305736 -0.674153 -0.318043 1.44498 -1.52032 3.03406 0.897255 0.01 
205 1 21 0.00442857 0.0308787 0.033231 -0.0558002 0.00189732 -0.034666 0.0857683 -0.0157636 0.101797 -1.52032 3.03406 0.897255 0.01 
206 1 21 0.00238046 0.0376578 0.0387852 -0.0450311 0.00850378 -0.0387583 0.0492888 -0.0175969 0.0661542 -1.52032 3.03406 0.897255 0.01 
207 1 21 0.000332341 0.0444369 0.0443394 -0.034262 0.0151102 -0.0428507 -0.0609071 0.0215094 -8.57065e-05 -1.52032 3.03406 0.897255 0.01 
208 1 21 -0.00171578 0.051216 0.0498936 -0.0234929 0.0217167 -0.046943 0 0 0 -1.52032 3.03406 0.897255 0.01 
209 1 21 -0.00376389 0.0579951 0.0554477 -0.0127238 0.0283232 -0.0510353 0 0 0 -1.52032 3.03406 0.897255 0.01 
210 1 21 -0.00581201 0.0647743 0.0610019 -0.00195471 0.0349296 -0.0551277 0.0163491 0.0404007 0.0281665 -1.52032 3.03406 0.897255 0.01 
211 1 22 0.0155109 0.27943 0.0677451 -0.0259373 0.177758 -0.0715379 -1.06562 -2.47553 2.69924 6.10666 6.44859 -7.69343 0.01 
212 1 22 0.0116244 0.27359 0.0733833 -0.0345084 0.173227 -0.0821387 0 0 0 6.10666 6.44859 -7.69343 0.01 
213 1 22 0.00773795 0.26775 0.0790215 -0.0430795 0.168697 -0.0927395 0 0 0 6.10666 6.44859 -7.69343 0.01 
214 1 22 0.00385149 0.26191 0.0846598 -0.0516506 0.164166 -0.10334 -0.269988 -0.2368 -1.95324 6.10666 6.44859 -7.69343 0.01 
215 1 22 -3.49724e-05 0.25607 0.090298 -0.0602217 0.159635 -0.113941 0 0 0 6.10666 6.44859 -7.69343 0.01 
216 1 22 -0.00392143 0.25023 0.0959362 -0.0687928 0.155105 -0.124542 0 0 0 6.10666 6.44859 -7.69343 0.01 
217 1 22 -0.0078079 0.24439 0.101574 -0.0773639 0.150574 -0.135143 -0.0282004 -0.0210489 -0.0260137 6.10666 6.44859 -7.69343 0.01 
218 1 22 -0.0116944 0.23855 0.107213 -0.085935 0.146044 -0.145743 0.593813 -0.0455378 0.220323 6.10666 6.44859 -7.69343 0.01 
219 1 22 -0.0155808 0.23271 0.112851 -0.0945061 0.141513 -0.156344 0.780795 0.337321 0.689808 6.10666 6.44859 -7.69343 0.01 
220 1 22 -0.0194673 0.22687 0.118489 -0.103077 0.136983 -0.166945 0.586925 1.00789 -0.0709255 6.10666 6.44859 -7.69343 0.01 
221 1 23 0.279481 0.0573277 0.0747552 0.408094 0.119657 -0.217165 0 0 0 -5.16342 2.59784 6.50823 0.01 
222 1 23 0.272991 0.061191 0.0796489 0.395664 0.102684 -0.220252 0 0 0 -5.16342 2.59784 6.50823 0.01 
223 1 23 0.2665 0.0650544 0.0845427 0.383233 0.085711 -0.223339 0 0 0 -5.16342 2.59784 6.50823 0.01 
224 1 23 0.26001 0.0689177 0.0894364 0.370803 0.0687381 -0.226426 0.026028 -0.0131852 0.454542 -5.16342 2.59784 6.50823 0.01 
225 1 23 0.253519 0.072781 0.0943302 0.358373 0.0517652 -0.229512 0.0397366 0.0438238 0.456464 -5.16342 2.59784 6.50823 0.01 
226 1 23 0.247029 0.0766444 0.0992239 0.345942 0.0347923 -0.232599 0 0 0 -5.16342 2.59784 6.50823 0.01 
227 1 23 0.240538 0.0805077 0.104118 0.333512 0.0178194 -0.235686 0.00910659 -0.219237 0.389314 -5.16342 2.59784 6.50823 0.01 
228 1 23 0.234048 0.0843711 0.109011 0.321081 0.000846517 -0.238773 0.0107234 -0.0374526 0.0913924 -5.16342 2.59784 6.50823 0.01 
229 1 23 0.227558 0.0882344 0.113905 0.308651 -0.0161264 -0.24186 0 0 0 -5.16342 2.59784 6.50823 0.01 
230 1 23 0.221067 0.0920978 0.118799 0.296221 -0.0330993 -0.244947 0 0 0 -5.16342 2.59784 6.50823 0.01 
231 1 24 0.177966 0.0020577 0.0114688 0.175372 -0.383627 0.0485386 0 0 0 11.0371 2.7296 11.3918 0.01 
232 1 24 0.185613 0.00322884 0.0160687 0.174586 -0.34729 0.0405926 0 0 0 11.0371 2.7296 11.3918 0.01 
233 1 24 0.193259 0.00439997 0.0206687 0.173801 -0.310952 0.0326466 0.0180467 -0.0522731 0.0138109 11.0371 2.7296 11.3918 0.01 
234 1 24 0.200906 0.00557111 0.0252686 0.173016 -0.274615 0.0247006 0.0242257 -0.0697305 0.019999 11.0371 2.7296 11.3918 0.01 
235 1 24 0.208552 0.00674225 0.0298686 0.17223 -0.238277 0.0167546 -0.101343 0.0107749 0.219193 11.0371 2.7296 11.3918 0.01 
236 1 24 0.216199 0.00791339 0.0344685 0.171445 -0.20194 0.00880863 0.0219721 -0.0617438 0.0209735 11.0371 2.7296 11.3918 0.01 
237 1 24 0.223845 0.00908452 0.0390684 0.17066 -0.165602 0.000862634 0.0131815 -0.0369083 0.013401 11.0371 2.7296 11.3918 0.01 
238 1 24 0.231492 0.0102557 0.0436684 0.169874 -0.129265 -0.00708336 0.0001883 -0.0005391 0.000201005 11.0371 2.7296 11.3918 0.01 
239 1 24 0.239138 0.0114268 0.0482683 0.169089 -0.0929275 -0.0150293 0.0231648 0.0283404 -0.0297649 11.0371 2.7296 11.3918 0.01 
240 1 24 0.246785 0.0125979 0.0528682 0.168304 -0.05659 -0.0229753 0.0236457 0.085712 -0.140526 11.0371 2.7296 11.3918 0.01 
241 1 25 0.141056 -0.222149 0.0500172 -0.111583 -0.152676 -0.0102388 0 0 0 5.24806 9.75992 2.49211 0.01 
242 1 25 0.145025 -0.219387 0.0576076 -0.0443852 -0.182619 -0.0344818 0 0 0 5.24806 9.75992 2.49211 0.01 
243 1 25 0.148994 -0.216624 0.065198 0.0228124 -0.212562 -0.0587248 0 0 0 5.24806 9.75992 2.49211 0.01 
244 1 25 0.152963 -0.213862 0.0727884 0.0900099 -0.242505 -0.0829677 0 0 0 5.24806 9.75992 2.49211 0.01 
245 1 25 0.156933 -0.2111 0.0803788 0.157207 -0.272448 -0.107211 0 0 0 5.24806 9.75992 2.49211 0.01 
246 1 25 0.160902 -0.208337 0.0879692 0.224405 -0.302391 -0.131454 0 0 0 5.24806 9.75992 2.49211 0.01 
247 1 25 0.164871 -0.205575 0.0955596 0.291603 -0.332334 -0.155697 0 0 0 5.24806 9.75992 2.49211 0.01 
248 1 25 0.168841 -0.202813 0.10315 0.3588 -0.362277 -0.17994 0 0 0 5.24806 9.75992 2.49211 0.01 
249 1 25 0.17281 -0.20005 0.11074 0.425998 -0.39222 -0.204182 0 0 0 5.24806 9.75992 2.49211 0.01 
250 1 25 0.176779 -0.197288 0.118331 0.493195 -0.422163 -0.228425 0 0 0 5.24806 9.75992 2.49211 0.01 
251 1 26 -0.00225578 -0.175683 0.0100938 0.0250484 -0.0255879 0.0553903 0 0 0 1.60475 -0.0261641 2.36629 0.01 
252 1 26 -0.000860816 -0.182569 0.015718 0.0411964 -0.0313125 0.044376 -0.16924 -0.110333 -0.293445 1.60475 -0.0261641 2.36629 0.01 
253 1 26 0.000534144 -0.189456 0.0213422 0.0573444 -0.0370371 0.0333616 -0.0924436 0.424389 0.222366 1.60475 -0.0261641 2.36629 0.01 