ITEM: TIMESTEP
7000
ITEM: NUMBER OF ATOMS
6300
ITEM: BOX BOUNDS mm mm mm
-0.3 0.3
-0.3 0.3
0 0.5
ITEM: ATOMS id type mol x y z vx vy vz fx fy fz omegax omegay omegaz radius 
1 1 1 -0.115317 -0.129414 0.150163 0 0 -1.68665 0 0 0 0 0 0 0.01 
2 1 1 -0.115317 -0.129414 0.159163 0 0 -1.68665 0 0 0 0 0 0 0.01 
3 1 1 -0.115317 -0.129414 0.168163 0 0 -1.68665 0 0 0 0 0 0 0.01 
4 1 1 -0.115317 -0.129414 0.177163 0 0 -1.68665 0 0 0 0 0 0 0.01 
5 1 1 -0.115317 -0.129414 0.186163 0 0 -1.68665 0 0 0 0 0 0 0.01 
6 1 1 -0.115317 -0.129414 0.195163 0 0 -1.68665 0 0 0 0 0 0 0.01 
7 1 1 -0.115317 -0.129414 0.204163 0 0 -1.68665 0 0 0 0 0 0 0.01 
8 1 1 -0.115317 -0.129414 0.213163 0 0 -1.68665 0 0 0 0 0 0 0.01 
9 1 1 -0.115317 -0.129414 0.222163 0 0 -1.68665 0 0 0 0 0 0 0.01 
10 1 1 -0.115317 -0.129414 0.231163 0 0 -1.68665 0 0 0 0 0 0 0.01 
11 1 2 -0.0460582 -0.101391 0.139703 0 0 -1.68665 0 0 0 0 0 0 0.01 
12 1 2 -0.0460582 -0.101391 0.148703 0 0 -1.68665 0 0 0 0 0 0 0.01 
13 1 2 -0.0460582 -0.101391 0.157703 0 0 -1.68665 0 0 0 0 0 0 0.01 
14 1 2 -0.0460582 -0.101391 0.166703 0 0 -1.68665 0 0 0 0 0 0 0.01 
15 1 2 -0.0460582 -0.101391 0.175703 0 0 -1.68665 0 0 0 0 0 0 0.01 
16 1 2 -0.0460582 -0.101391 0.184703 0 0 -1.68665 0 0 0 0 0 0 0.01 
17 1 2 -0.0460582 -0.101391 0.193703 0 0 -1.68665 0 0 0 0 0 0 0.01 
18 1 2 -0.0460582 -0.101391 0.202703 0 0 -1.68665 0 0 0 0 0 0 0.01 
19 1 2 -0.0460582 -0.101391 0.211703 0 0 -1.68665 0 0 0 0 0 0 0.01 
20 1 2 -0.0460582 -0.101391 0.220703 0 0 -1.68665 0 0 0 0 0 0 0.01 
21 1 3 -0.0432219 -0.03145 0.125828 0.055155 -0.0383977 -1.65743 -0.409044 0.200841 0.329897 -0.581918 -0.811703 0.502329 0.01 
22 1 3 -0.0432384 -0.0314381 0.134828 0.0478437 -0.0331688 -1.65745 0 0 0 -0.581918 -0.811703 0.502329 0.01 
23 1 3 -0.0432549 -0.0314262 0.143828 0.0405324 -0.0279398 -1.65747 0 0 0 -0.581918 -0.811703 0.502329 0.01 
24 1 3 -0.0432714 -0.0314143 0.152828 0.0332211 -0.0227109 -1.65749 0 0 0 -0.581918 -0.811703 0.502329 0.01 
25 1 3 -0.0432879 -0.0314024 0.161828 0.0259098 -0.0174819 -1.65751 0 0 0 -0.581918 -0.811703 0.502329 0.01 
26 1 3 -0.0433044 -0.0313905 0.170828 0.0185985 -0.0122529 -1.65753 0 0 0 -0.581918 -0.811703 0.502329 0.01 
27 1 3 -0.0433209 -0.0313786 0.179828 0.0112872 -0.00702397 -1.65755 0 0 0 -0.581918 -0.811703 0.502329 0.01 
28 1 3 -0.0433373 -0.0313667 0.188828 0.00397595 -0.00179501 -1.65757 0 0 0 -0.581918 -0.811703 0.502329 0.01 
29 1 3 -0.0433538 -0.0313547 0.197828 -0.00333534 0.00343395 -1.65759 0 0 0 -0.581918 -0.811703 0.502329 0.01 
30 1 3 -0.0433703 -0.0313428 0.206828 -0.0106466 0.00866291 -1.65762 0 0 0 -0.581918 -0.811703 0.502329 0.01 
31 1 4 -0.0929903 0.110329 0.0665234 0 0 -1.68665 0 0 0 0 0 0 0.01 
32 1 4 -0.0929903 0.110329 0.0755234 0 0 -1.68665 0 0 0 0 0 0 0.01 
33 1 4 -0.0929903 0.110329 0.0845234 0 0 -1.68665 0 0 0 0 0 0 0.01 
34 1 4 -0.0929903 0.110329 0.0935234 0 0 -1.68665 0 0 0 0 0 0 0.01 
35 1 4 -0.0929903 0.110329 0.102523 0 0 -1.68665 0 0 0 0 0 0 0.01 
36 1 4 -0.0929903 0.110329 0.111523 0 0 -1.68665 0 0 0 0 0 0 0.01 
37 1 4 -0.0929903 0.110329 0.120523 0 0 -1.68665 0 0 0 0 0 0 0.01 
38 1 4 -0.0929903 0.110329 0.129523 0 0 -1.68665 0 0 0 0 0 0 0.01 
39 1 4 -0.0929903 0.110329 0.138523 0 0 -1.68665 0 0 0 0 0 0 0.01 
40 1 4 -0.0929903 0.110329 0.147523 0 0 -1.68665 0 0 0 0 0 0 0.01 
41 1 5 0.0775556 -0.135205 0.106761 0.0277951 0.135587 0.0954457 0 0 0 -1.14783 -0.0199755 0.355135 0.01 
42 1 5 0.0775551 -0.135106 0.115761 0.0275802 0.145917 0.0953323 0 0 0 -1.14783 -0.0199755 0.355135 0.01 
43 1 5 0.0775547 -0.135008 0.12476 0.0273654 0.156246 0.095219 0 0 0 -1.14783 -0.0199755 0.355135 0.01 
44 1 5 0.0775543 -0.134909 0.13376 0.0271506 0.166576 0.0951056 0 0 0 -1.14783 -0.0199755 0.355135 0.01 
45 1 5 0.0775538 -0.13481 0.142759 0.0269357 0.176906 0.0949923 0 0 0 -1.14783 -0.0199755 0.355135 0.01 
46 1 5 0.0775534 -0.134711 0.151759 0.0267209 0.187235 0.0948789 0 0 0 -1.14783 -0.0199755 0.355135 0.01 
47 1 5 0.077553 -0.134613 0.160758 0.0265061 0.197565 0.0947656 0 0 0 -1.14783 -0.0199755 0.355135 0.01 
48 1 5 0.0775525 -0.134514 0.169758 0.0262912 0.207895 0.0946522 0 0 0 -1.14783 -0.0199755 0.355135 0.01 
49 1 5 0.0775521 -0.134415 0.178757 0.0260764 0.218224 0.0945389 0 0 0 -1.14783 -0.0199755 0.355135 0.01 
50 1 5 0.0775517 -0.134316 0.187757 0.0258616 0.228554 0.0944255 0 0 0 -1.14783 -0.0199755 0.355135 0.01 
51 1 6 0.170849 -0.044483 0.114963 0 0 -1.68665 0 0 0 0 0 0 0.01 
52 1 6 0.170849 -0.044483 0.123963 0 0 -1.68665 0 0 0 0 0 0 0.01 
53 1 6 0.170849 -0.044483 0.132963 0 0 -1.68665 0 0 0 0 0 0 0.01 
54 1 6 0.170849 -0.044483 0.141963 0 0 -1.68665 0 0 0 0 0 0 0.01 
55 1 6 0.170849 -0.044483 0.150963 0 0 -1.68665 0 0 0 0 0 0 0.01 
56 1 6 0.170849 -0.044483 0.159963 0 0 -1.68665 0 0 0 0 0 0 0.01 
57 1 6 0.170849 -0.044483 0.168963 0 0 -1.68665 0 0 0 0 0 0 0.01 
58 1 6 0.170849 -0.044483 0.177963 0 0 -1.68665 0 0 0 0 0 0 0.01 
59 1 6 0.170849 -0.044483 0.186963 0 0 -1.68665 0 0 0 0 0 0 0.01 
60 1 6 0.170849 -0.044483 0.195963 0 0 -1.68665 0 0 0 0 0 0 0.01 
61 1 7 -0.0369062 0.215855 0.117486 0 0 -1.68665 0 0 0 0 0 0 0.01 
62 1 7 -0.0369062 0.215855 0.126486 0 0 -1.68665 0 0 0 0 0 0 0.01 
63 1 7 -0.0369062 0.215855 0.135486 0 0 -1.68665 0 0 0 0 0 0 0.01 
64 1 7 -0.0369062 0.215855 0.144486 0 0 -1.68665 0 0 0 0 0 0 0.01 
65 1 7 -0.0369062 0.215855 0.153486 0 0 -1.68665 0 0 0 0 0 0 0.01 
66 1 7 -0.0369062 0.215855 0.162486 0 0 -1.68665 0 0 0 0 0 0 0.01 
67 1 7 -0.0369062 0.215855 0.171486 0 0 -1.68665 0 0 0 0 0 0 0.01 
68 1 7 -0.0369062 0.215855 0.180486 0 0 -1.68665 0 0 0 0 0 0 0.01 
69 1 7 -0.0369062 0.215855 0.189486 0 0 -1.68665 0 0 0 0 0 0 0.01 
70 1 7 -0.0369062 0.215855 0.198486 0 0 -1.68665 0 0 0 0 0 0 0.01 
71 1 8 0.122768 -0.136526 0.132343 0 0 -1.68665 0 0 0 0 0 0 0.01 
72 1 8 0.122768 -0.136526 0.141343 0 0 -1.68665 0 0 0 0 0 0 0.01 
73 1 8 0.122768 -0.136526 0.150343 0 0 -1.68665 0 0 0 0 0 0 0.01 
74 1 8 0.122768 -0.136526 0.159343 0 0 -1.68665 0 0 0 0 0 0 0.01 
75 1 8 0.122768 -0.136526 0.168343 0 0 -1.68665 0 0 0 0 0 0 0.01 
76 1 8 0.122768 -0.136526 0.177343 0 0 -1.68665 0 0 0 0 0 0 0.01 
77 1 8 0.122768 -0.136526 0.186343 0 0 -1.68665 0 0 0 0 0 0 0.01 
78 1 8 0.122768 -0.136526 0.195343 0 0 -1.68665 0 0 0 0 0 0 0.01 
79 1 8 0.122768 -0.136526 0.204343 0 0 -1.68665 0 0 0 0 0 0 0.01 
80 1 8 0.122768 -0.136526 0.213343 0 0 -1.68665 0 0 0 0 0 0 0.01 
81 1 9 -0.103348 0.0216352 0.264333 0 0 -1.68665 0 0 0 0 0 0 0.01 
82 1 9 -0.103348 0.0216352 0.273333 0 0 -1.68665 0 0 0 0 0 0 0.01 
83 1 9 -0.103348 0.0216352 0.282333 0 0 -1.68665 0 0 0 0 0 0 0.01 
84 1 9 -0.103348 0.0216352 0.291333 0 0 -1.68665 0 0 0 0 0 0 0.01 
85 1 9 -0.103348 0.0216352 0.300333 0 0 -1.68665 0 0 0 0 0 0 0.01 
86 1 9 -0.103348 0.0216352 0.309333 0 0 -1.68665 0 0 0 0 0 0 0.01 
87 1 9 -0.103348 0.0216352 0.318333 0 0 -1.68665 0 0 0 0 0 0 0.01 
88 1 9 -0.103348 0.0216352 0.327333 0 0 -1.68665 0 0 0 0 0 0 0.01 
89 1 9 -0.103348 0.0216352 0.336333 0 0 -1.68665 0 0 0 0 0 0 0.01 
90 1 9 -0.103348 0.0216352 0.345333 0 0 -1.68665 0 0 0 0 0 0 0.01 
91 1 10 0.0525233 0.205043 0.109877 -0.0299043 0.0587202 -0.465125 0 0 0 -0.186457 -0.0910165 -0.00302686 0.01 
92 1 10 0.0525002 0.205089 0.118877 -0.0307233 0.0603984 -0.465136 0 0 0 -0.186457 -0.0910165 -0.00302686 0.01 
93 1 10 0.0524771 0.205135 0.127877 -0.0315423 0.0620765 -0.465146 0 0 0 -0.186457 -0.0910165 -0.00302686 0.01 
94 1 10 0.052454 0.205181 0.136876 -0.0323613 0.0637547 -0.465157 0 0 0 -0.186457 -0.0910165 -0.00302686 0.01 
95 1 10 0.0524309 0.205227 0.145876 -0.0331803 0.0654329 -0.465168 0 0 0 -0.186457 -0.0910165 -0.00302686 0.01 
96 1 10 0.0524078 0.205273 0.154876 -0.0339993 0.067111 -0.465178 0 0 0 -0.186457 -0.0910165 -0.00302686 0.01 
97 1 10 0.0523847 0.205319 0.163876 -0.0348183 0.0687892 -0.465189 0 0 0 -0.186457 -0.0910165 -0.00302686 0.01 
98 1 10 0.0523616 0.205365 0.172876 -0.0356373 0.0704673 -0.4652 0 0 0 -0.186457 -0.0910165 -0.00302686 0.01 
99 1 10 0.0523385 0.205411 0.181876 -0.0364563 0.0721455 -0.46521 0 0 0 -0.186457 -0.0910165 -0.00302686 0.01 
100 1 10 0.0523154 0.205457 0.190875 -0.0372753 0.0738236 -0.465221 0 0 0 -0.186457 -0.0910165 -0.00302686 0.01 
101 1 11 -0.191384 -0.0894902 0.153113 0 0 -1.68665 0 0 0 0 0 0 0.01 
102 1 11 -0.191384 -0.0894902 0.162113 0 0 -1.68665 0 0 0 0 0 0 0.01 
103 1 11 -0.191384 -0.0894902 0.171113 0 0 -1.68665 0 0 0 0 0 0 0.01 
104 1 11 -0.191384 -0.0894902 0.180113 0 0 -1.68665 0 0 0 0 0 0 0.01 
105 1 11 -0.191384 -0.0894902 0.189113 0 0 -1.68665 0 0 0 0 0 0 0.01 
106 1 11 -0.191384 -0.0894902 0.198113 0 0 -1.68665 0 0 0 0 0 0 0.01 
107 1 11 -0.191384 -0.0894902 0.207113 0 0 -1.68665 0 0 0 0 0 0 0.01 
108 1 11 -0.191384 -0.0894902 0.216113 0 0 -1.68665 0 0 0 0 0 0 0.01 
109 1 11 -0.191384 -0.0894902 0.225113 0 0 -1.68665 0 0 0 0 0 0 0.01 
110 1 11 -0.191384 -0.0894902 0.234113 0 0 -1.68665 0 0 0 0 0 0 0.01 
111 1 12 0.0987028 0.0562236 0.111597 0.153054 -0.0422536 0.283151 0 0 0 -0.96432 -0.21892 1.92736 0.01 
112 1 12 0.0985554 0.0563459 0.120595 0.150848 -0.0338609 0.283001 0 0 0 -0.96432 -0.21892 1.92736 0.01 
113 1 12 0.0984079 0.0564683 0.129593 0.148643 -0.0254682 0.282851 0 0 0 -0.96432 -0.21892 1.92736 0.01 
114 1 12 0.0982604 0.0565907 0.138591 0.146437 -0.0170755 0.2827 0 0 0 -0.96432 -0.21892 1.92736 0.01 
115 1 12 0.098113 0.056713 0.147589 0.144231 -0.00868281 0.28255 0 0 0 -0.96432 -0.21892 1.92736 0.01 
116 1 12 0.0979655 0.0568354 0.156587 0.142026 -0.000290112 0.2824 0 0 0 -0.96432 -0.21892 1.92736 0.01 
117 1 12 0.097818 0.0569578 0.165584 0.13982 0.00810259 0.282249 0 0 0 -0.96432 -0.21892 1.92736 0.01 
118 1 12 0.0976706 0.0570801 0.174582 0.137614 0.0164953 0.282099 0 0 0 -0.96432 -0.21892 1.92736 0.01 
119 1 12 0.0975231 0.0572025 0.18358 0.135409 0.024888 0.281949 0 0 0 -0.96432 -0.21892 1.92736 0.01 
120 1 12 0.0973757 0.0573249 0.192578 0.133203 0.0332807 0.281799 0 0 0 -0.96432 -0.21892 1.92736 0.01 
121 1 13 -0.0168848 0.215837 0.237483 0 0 -1.68665 0 0 0 0 0 0 0.01 
122 1 13 -0.0168848 0.215837 0.246483 0 0 -1.68665 0 0 0 0 0 0 0.01 
123 1 13 -0.0168848 0.215837 0.255483 0 0 -1.68665 0 0 0 0 0 0 0.01 
124 1 13 -0.0168848 0.215837 0.264483 0 0 -1.68665 0 0 0 0 0 0 0.01 
125 1 13 -0.0168848 0.215837 0.273483 0 0 -1.68665 0 0 0 0 0 0 0.01 
126 1 13 -0.0168848 0.215837 0.282483 0 0 -1.68665 0 0 0 0 0 0 0.01 
127 1 13 -0.0168848 0.215837 0.291483 0 0 -1.68665 0 0 0 0 0 0 0.01 
128 1 13 -0.0168848 0.215837 0.300483 0 0 -1.68665 0 0 0 0 0 0 0.01 
129 1 13 -0.0168848 0.215837 0.309483 0 0 -1.68665 0 0 0 0 0 0 0.01 
130 1 13 -0.0168848 0.215837 0.318483 0 0 -1.68665 0 0 0 0 0 0 0.01 
131 1 14 -0.0494958 0.122461 0.00885767 1.60939e-06 -0.000118591 -1.05415 -9.14719e-05 0.0067403 69.9102 -0.0037869 -5.13921e-05 -2.63913e-06 0.01 
132 1 14 -0.0494958 0.122461 0.0178577 1.14686e-06 -8.45092e-05 -1.05415 0 0 0 -0.0037869 -5.13921e-05 -2.63913e-06 0.01 
133 1 14 -0.0494958 0.122461 0.0268577 6.8433e-07 -5.04271e-05 -1.05415 0 0 0 -0.0037869 -5.13921e-05 -2.63913e-06 0.01 
134 1 14 -0.0494958 0.122461 0.0358577 2.21801e-07 -1.6345e-05 -1.05415 0 0 0 -0.0037869 -5.13921e-05 -2.63913e-06 0.01 
135 1 14 -0.0494958 0.122461 0.0448577 -2.40727e-07 1.77372e-05 -1.05415 0 0 0 -0.0037869 -5.13921e-05 -2.63913e-06 0.01 
136 1 14 -0.0494958 0.122461 0.0538577 -7.03256e-07 5.18193e-05 -1.05415 0 0 0 -0.0037869 -5.13921e-05 -2.63913e-06 0.01 
137 1 14 -0.0494958 0.122461 0.0628577 -1.16578e-06 8.59014e-05 -1.05415 0 0 0 -0.0037869 -5.13921e-05 -2.63913e-06 0.01 
138 1 14 -0.0494958 0.122461 0.0718577 -1.62831e-06 0.000119984 -1.05415 0 0 0 -0.0037869 -5.13921e-05 -2.63913e-06 0.01 
139 1 14 -0.0494958 0.122461 0.0808577 -2.09084e-06 0.000154066 -1.05415 0 0 0 -0.0037869 -5.13921e-05 -2.63913e-06 0.01 
140 1 14 -0.0494958 0.122461 0.0898577 -2.55337e-06 0.000188148 -1.05415 0 0 0 -0.0037869 -5.13921e-05 -2.63913e-06 0.01 
141 1 15 -0.0104758 -0.0692281 0.179842 0 0 -1.68665 0 0 0 0 0 0 0.01 
142 1 15 -0.0104758 -0.0692281 0.188842 0 0 -1.68665 0 0 0 0 0 0 0.01 
143 1 15 -0.0104758 -0.0692281 0.197842 0 0 -1.68665 0 0 0 0 0 0 0.01 
144 1 15 -0.0104758 -0.0692281 0.206842 0 0 -1.68665 0 0 0 0 0 0 0.01 
145 1 15 -0.0104758 -0.0692281 0.215842 0 0 -1.68665 0 0 0 0 0 0 0.01 
146 1 15 -0.0104758 -0.0692281 0.224842 0 0 -1.68665 0 0 0 0 0 0 0.01 
147 1 15 -0.0104758 -0.0692281 0.233842 0 0 -1.68665 0 0 0 0 0 0 0.01 
148 1 15 -0.0104758 -0.0692281 0.242842 0 0 -1.68665 0 0 0 0 0 0 0.01 
149 1 15 -0.0104758 -0.0692281 0.251842 0 0 -1.68665 0 0 0 0 0 0 0.01 
150 1 15 -0.0104758 -0.0692281 0.260842 0 0 -1.68665 0 0 0 0 0 0 0.01 
151 1 16 -0.0407462 0.176734 0.113325 0 0 -1.68665 0 0 0 0 0 0 0.01 
152 1 16 -0.0407462 0.176734 0.122325 0 0 -1.68665 0 0 0 0 0 0 0.01 
153 1 16 -0.0407462 0.176734 0.131325 0 0 -1.68665 0 0 0 0 0 0 0.01 
154 1 16 -0.0407462 0.176734 0.140325 0 0 -1.68665 0 0 0 0 0 0 0.01 
155 1 16 -0.0407462 0.176734 0.149325 0 0 -1.68665 0 0 0 0 0 0 0.01 
156 1 16 -0.0407462 0.176734 0.158325 0 0 -1.68665 0 0 0 0 0 0 0.01 
157 1 16 -0.0407462 0.176734 0.167325 0 0 -1.68665 0 0 0 0 0 0 0.01 
158 1 16 -0.0407462 0.176734 0.176325 0 0 -1.68665 0 0 0 0 0 0 0.01 
159 1 16 -0.0407462 0.176734 0.185325 0 0 -1.68665 0 0 0 0 0 0 0.01 
160 1 16 -0.0407462 0.176734 0.194325 0 0 -1.68665 0 0 0 0 0 0 0.01 
161 1 17 0.0731894 0.0923845 0.0135164 0 0 -1.68665 0 0 0 0 0 0 0.01 
162 1 17 0.0731894 0.0923845 0.0225164 0 0 -1.68665 0 0 0 0 0 0 0.01 
163 1 17 0.0731894 0.0923845 0.0315164 0 0 -1.68665 0 0 0 0 0 0 0.01 
164 1 17 0.0731894 0.0923845 0.0405164 0 0 -1.68665 0 0 0 0 0 0 0.01 
165 1 17 0.0731894 0.0923845 0.0495164 0 0 -1.68665 0 0 0 0 0 0 0.01 
166 1 17 0.0731894 0.0923845 0.0585164 0 0 -1.68665 0 0 0 0 0 0 0.01 
167 1 17 0.0731894 0.0923845 0.0675164 0 0 -1.68665 0 0 0 0 0 0 0.01 
168 1 17 0.0731894 0.0923845 0.0765164 0 0 -1.68665 0 0 0 0 0 0 0.01 
169 1 17 0.0731894 0.0923845 0.0855164 0 0 -1.68665 0 0 0 0 0 0 0.01 
170 1 17 0.0731894 0.0923845 0.0945164 0 0 -1.68665 0 0 0 0 0 0 0.01 
171 1 18 -0.23779 -0.0339416 0.215985 0 0 -1.68665 0 0 0 0 0 0 0.01 
172 1 18 -0.23779 -0.0339416 0.224985 0 0 -1.68665 0 0 0 0 0 0 0.01 
173 1 18 -0.23779 -0.0339416 0.233985 0 0 -1.68665 0 0 0 0 0 0 0.01 
174 1 18 -0.23779 -0.0339416 0.242985 0 0 -1.68665 0 0 0 0 0 0 0.01 
175 1 18 -0.23779 -0.0339416 0.251985 0 0 -1.68665 0 0 0 0 0 0 0.01 
176 1 18 -0.23779 -0.0339416 0.260985 0 0 -1.68665 0 0 0 0 0 0 0.01 
177 1 18 -0.23779 -0.0339416 0.269985 0 0 -1.68665 0 0 0 0 0 0 0.01 
178 1 18 -0.23779 -0.0339416 0.278985 0 0 -1.68665 0 0 0 0 0 0 0.01 
179 1 18 -0.23779 -0.0339416 0.287985 0 0 -1.68665 0 0 0 0 0 0 0.01 
180 1 18 -0.23779 -0.0339416 0.296985 0 0 -1.68665 0 0 0 0 0 0 0.01 
181 1 19 0.00334189 0.165527 0.193235 0 0 -1.68665 0 0 0 0 0 0 0.01 
182 1 19 0.00334189 0.165527 0.202235 0 0 -1.68665 0 0 0 0 0 0 0.01 
183 1 19 0.00334189 0.165527 0.211235 0 0 -1.68665 0 0 0 0 0 0 0.01 
184 1 19 0.00334189 0.165527 0.220235 0 0 -1.68665 0 0 0 0 0 0 0.01 
185 1 19 0.00334189 0.165527 0.229235 0 0 -1.68665 0 0 0 0 0 0 0.01 
186 1 19 0.00334189 0.165527 0.238235 0 0 -1.68665 0 0 0 0 0 0 0.01 
187 1 19 0.00334189 0.165527 0.247235 0 0 -1.68665 0 0 0 0 0 0 0.01 
188 1 19 0.00334189 0.165527 0.256235 0 0 -1.68665 0 0 0 0 0 0 0.01 
189 1 19 0.00334189 0.165527 0.265235 0 0 -1.68665 0 0 0 0 0 0 0.01 
190 1 19 0.00334189 0.165527 0.274235 0 0 -1.68665 0 0 0 0 0 0 0.01 
191 1 20 -0.00783219 0.186609 0.0161811 0.0355887 0.0345957 -0.128875 0 0 0 0.547235 -0.565607 0.00577208 0.01 
192 1 20 -0.00783365 0.186609 0.0251811 0.0304983 0.0296706 -0.128876 0 0 0 0.547235 -0.565607 0.00577208 0.01 
193 1 20 -0.0078351 0.186608 0.0341811 0.0254078 0.0247454 -0.128877 0 0 0 0.547235 -0.565607 0.00577208 0.01 
194 1 20 -0.00783656 0.186607 0.0431811 0.0203174 0.0198203 -0.128878 0 0 0 0.547235 -0.565607 0.00577208 0.01 
195 1 20 -0.00783802 0.186607 0.0521811 0.0152269 0.0148952 -0.12888 0 0 0 0.547235 -0.565607 0.00577208 0.01 
196 1 20 -0.00783947 0.186606 0.0611811 0.0101365 0.00997006 -0.128881 0 0 0 0.547235 -0.565607 0.00577208 0.01 
197 1 20 -0.00784093 0.186605 0.0701811 0.005046 0.00504493 -0.128882 0 0 0 0.547235 -0.565607 0.00577208 0.01 
198 1 20 -0.00784239 0.186605 0.0791811 -4.4452e-05 0.000119807 -0.128883 0 0 0 0.547235 -0.565607 0.00577208 0.01 
199 1 20 -0.00784384 0.186604 0.0881811 -0.00513491 -0.00480532 -0.128884 0 0 0 0.547235 -0.565607 0.00577208 0.01 
200 1 20 -0.0078453 0.186603 0.0971811 -0.0102254 -0.00973045 -0.128885 1.59474 1.5351 -45.2993 0.547235 -0.565607 0.00577208 0.01 
201 1 21 0.0192724 0.00373581 0.0103245 0.00473709 -0.0235485 -0.151839 0 0 0 -2.24276 -2.09601 -0.593251 0.01 
202 1 21 0.0191242 0.00387835 0.0193222 -0.0140375 -0.00328097 -0.152469 0 0 0 -2.24276 -2.09601 -0.593251 0.01 
203 1 21 0.018976 0.00402089 0.0283198 -0.0328121 0.0169866 -0.1531 0 0 0 -2.24276 -2.09601 -0.593251 0.01 
204 1 21 0.0188277 0.00416343 0.0373175 -0.0515867 0.0372541 -0.15373 0 0 0 -2.24276 -2.09601 -0.593251 0.01 
205 1 21 0.0186795 0.00430597 0.0463151 -0.0703613 0.0575216 -0.15436 0 0 0 -2.24276 -2.09601 -0.593251 0.01 
206 1 21 0.0185312 0.00444851 0.0553128 -0.089136 0.0777891 -0.154991 0 0 0 -2.24276 -2.09601 -0.593251 0.01 
207 1 21 0.018383 0.00459105 0.0643104 -0.107911 0.0980567 -0.155621 0 0 0 -2.24276 -2.09601 -0.593251 0.01 
208 1 21 0.0182347 0.00473359 0.0733081 -0.126685 0.118324 -0.156252 0 0 0 -2.24276 -2.09601 -0.593251 0.01 
209 1 21 0.0180865 0.00487613 0.0823057 -0.14546 0.138592 -0.156882 0 0 0 -2.24276 -2.09601 -0.593251 0.01 
210 1 21 0.0179382 0.00501867 0.0913034 -0.164234 0.158859 -0.157513 0.369269 -0.0139159 0.178008 -2.24276 -2.09601 -0.593251 0.01 
211 1 22 0.00289755 0.197355 0.153242 0 0 -1.68665 0 0 0 0 0 0 0.01 
212 1 22 0.00289755 0.197355 0.162242 0 0 -1.68665 0 0 0 0 0 0 0.01 
213 1 22 0.00289755 0.197355 0.171242 0 0 -1.68665 0 0 0 0 0 0 0.01 
214 1 22 0.00289755 0.197355 0.180242 0 0 -1.68665 0 0 0 0 0 0 0.01 
215 1 22 0.00289755 0.197355 0.189242 0 0 -1.68665 0 0 0 0 0 0 0.01 
216 1 22 0.00289755 0.197355 0.198242 0 0 -1.68665 0 0 0 0 0 0 0.01 
217 1 22 0.00289755 0.197355 0.207242 0 0 -1.68665 0 0 0 0 0 0 0.01 
218 1 22 0.00289755 0.197355 0.216242 0 0 -1.68665 0 0 0 0 0 0 0.01 
219 1 22 0.00289755 0.197355 0.225242 0 0 -1.68665 0 0 0 0 0 0 0.01 
220 1 22 0.00289755 0.197355 0.234242 0 0 -1.68665 0 0 0 0 0 0 0.01 
221 1 23 0.214349 0.0539113 0.242774 0 0 -1.68665 0 0 0 0 0 0 0.01 
222 1 23 0.214349 0.0539113 0.251774 0 0 -1.68665 0 0 0 0 0 0 0.01 
223 1 23 0.214349 0.0539113 0.260774 0 0 -1.68665 0 0 0 0 0 0 0.01 
224 1 23 0.214349 0.0539113 0.269774 0 0 -1.68665 0 0 0 0 0 0 0.01 
225 1 23 0.214349 0.0539113 0.278774 0 0 -1.68665 0 0 0 0 0 0 0.01 
226 1 23 0.214349 0.0539113 0.287774 0 0 -1.68665 0 0 0 0 0 0 0.01 
227 1 23 0.214349 0.0539113 0.296774 0 0 -1.68665 0 0 0 0 0 0 0.01 
228 1 23 0.214349 0.0539113 0.305774 0 0 -1.68665 0 0 0 0 0 0 0.01 
229 1 23 0.214349 0.0539113 0.314774 0 0 -1.68665 0 0 0 0 0 0 0.01 
230 1 23 0.214349 0.0539113 0.323774 0 0 -1.68665 0 0 0 0 0 0 0.01 
231 1 24 0.157317 0.0258767 0.00967689 0.0124481 0.0846194 -1.4546 -0.381945 -3.11134 42.6286 3.56323 -0.226616 -3.36983 0.01 
232 1 24 0.157304 0.0257421 0.0186759 0.0099554 0.0525966 -1.45508 0 0 0 3.56323 -0.226616 -3.36983 0.01 
233 1 24 0.157292 0.0256076 0.0276749 0.00746272 0.0205738 -1.45556 0 0 0 3.56323 -0.226616 -3.36983 0.01 
234 1 24 0.157279 0.0254731 0.0366738 0.00497003 -0.011449 -1.45604 0 0 0 3.56323 -0.226616 -3.36983 0.01 
235 1 24 0.157266 0.0253385 0.0456728 0.00247735 -0.0434719 -1.45652 0 0 0 3.56323 -0.226616 -3.36983 0.01 
236 1 24 0.157254 0.025204 0.0546718 -1.53381e-05 -0.0754947 -1.45701 0 0 0 3.56323 -0.226616 -3.36983 0.01 
237 1 24 0.157241 0.0250694 0.0636708 -0.00250802 -0.107518 -1.45749 0 0 0 3.56323 -0.226616 -3.36983 0.01 
238 1 24 0.157228 0.0249349 0.0726698 -0.00500071 -0.13954 -1.45797 0 0 0 3.56323 -0.226616 -3.36983 0.01 
239 1 24 0.157216 0.0248004 0.0816688 -0.00749339 -0.171563 -1.45845 0 0 0 3.56323 -0.226616 -3.36983 0.01 
240 1 24 0.157203 0.0246658 0.0906678 -0.00998608 -0.203586 -1.45894 0 0 0 3.56323 -0.226616 -3.36983 0.01 
241 1 25 0.134963 -0.174125 0.180598 0 0 -1.68665 0 0 0 0 0 0 0.01 
242 1 25 0.134963 -0.174125 0.189598 0 0 -1.68665 0 0 0 0 0 0 0.01 
243 1 25 0.134963 -0.174125 0.198598 0 0 -1.68665 0 0 0 0 0 0 0.01 
244 1 25 0.134963 -0.174125 0.207598 0 0 -1.68665 0 0 0 0 0 0 0.01 
245 1 25 0.134963 -0.174125 0.216598 0 0 -1.68665 0 0 0 0 0 0 0.01 
246 1 25 0.134963 -0.174125 0.225598 0 0 -1.68665 0 0 0 0 0 0 0.01 
247 1 25 0.134963 -0.174125 0.234598 0 0 -1.68665 0 0 0 0 0 0 0.01 
248 1 25 0.134963 -0.174125 0.243598 0 0 -1.68665 0 0 0 0 0 0 0.01 
249 1 25 0.134963 -0.174125 0.252598 0 0 -1.68665 0 0 0 0 0 0 0.01 
250 1 25 0.134963 -0.174125 0.261598 0 0 -1.68665 0 0 0 0 0 0 0.01 
251 1 26 -0.00920263 -0.17024 0.0542706 0 0 -1.68665 0 0 0 0 0 0 0.01 
252 1 26 -0.00920263 -0.17024 0.0632706 0 0 -1.68665 0 0 0 0 0 0 0.01 
253 1 26 -0.00920263 -0.17024 0.0722706 0 0 -1.68665 0 0 0 0 0 0 0.01 
254 1 26 -0.00920263 -0.17024 0.0812706 0 0 -1.68665 0 0 0 0 0 0 0.01 
255 1 26 -0.00920263 -0.17024 0.0902706 0 0 -1.68665 0 0 0 0 0 0 0.01 
256 1 26 -0.00920263 -0.17024 0.0992706 0 0 -1.68665 0 0 0 0 0 0 0.01 
257 1 26 -0.00920263 -0.17024 0.108271 0 0 -1.68665 0 0 0 0 0 0 0.01 
258 1 26 -0.00920263 -0.17024 0.117271 0 0 -1.68665 0 0 0 0 0 0 0.01 
259 1 26 -0.00920263 -0.17024 0.126271 0 0 -1.68665 0 0 0 0 0 0 0.01 
260 1 26 -0.00920263 -0.17024 0.135271 0 0 -1.68665 0 0 0 0 0 0 0.01 
261 1 27 -0.145634 0.150686 0.178182 0.0251209 0.0510826 -1.41252 0.30311 -0.0305949 4.07944 1.00195 -0.158136 -1.05817 0.01 
262 1 27 -0.145637 0.15067 0.187182 0.0236802 0.0420681 -1.41254 0 0 0 1.00195 -0.158136 -1.05817 0.01 
263 1 27 -0.145639 0.150653 0.196182 0.0222396 0.0330535 -1.41256 0 0 0 1.00195 -0.158136 -1.05817 0.01 
264 1 27 -0.145642 0.150637 0.205182 0.020799 0.024039 -1.41257 0 0 0 1.00195 -0.158136 -1.05817 0.01 
265 1 27 -0.145645 0.15062 0.214182 0.0193583 0.0150244 -1.41259 0 0 0 1.00195 -0.158136 -1.05817 0.01 
266 1 27 -0.145648 0.150604 0.223182 0.0179177 0.00600984 -1.41261 0 0 0 1.00195 -0.158136 -1.05817 0.01 
267 1 27 -0.14565 0.150587 0.232182 0.016477 -0.00300472 -1.41262 0 0 0 1.00195 -0.158136 -1.05817 0.01 
268 1 27 -0.145653 0.150571 0.241182 0.0150364 -0.0120193 -1.41264 0 0 0 1.00195 -0.158136 -1.05817 0.01 
269 1 27 -0.145656 0.150554 0.250182 0.0135957 -0.0210338 -1.41266 0 0 0 1.00195 -0.158136 -1.05817 0.01 
270 1 27 -0.145659 0.150538 0.259182 0.0121551 -0.0300484 -1.41268 0 0 0 1.00195 -0.158136 -1.05817 0.01 
271 1 28 0.0144186 -0.169101 0.138351 0 0 -1.68665 0 0 0 0 0 0 0.01 
272 1 28 0.0144186 -0.169101 0.147351 0 0 -1.68665 0 0 0 0 0 0 0.01 
273 1 28 0.0144186 -0.169101 0.156351 0 0 -1.68665 0 0 0 0 0 0 0.01 
274 1 28 0.0144186 -0.169101 0.165351 0 0 -1.68665 0 0 0 0 0 0 0.01 
275 1 28 0.0144186 -0.169101 0.174351 0 0 -1.68665 0 0 0 0 0 0 0.01 
276 1 28 0.0144186 -0.169101 0.183351 0 0 -1.68665 0 0 0 0 0 0 0.01 
277 1 28 0.0144186 -0.169101 0.192351 0 0 -1.68665 0 0 0 0 0 0 0.01 
278 1 28 0.0144186 -0.169101 0.201351 0 0 -1.68665 0 0 0 0 0 0 0.01 
279 1 28 0.0144186 -0.169101 0.210351 0 0 -1.68665 0 0 0 0 0 0 0.01 
280 1 28 0.0144186 -0.169101 0.219351 0 0 -1.68665 0 0 0 0 0 0 0.01 
281 1 29 0.0770886 0.126328 0.011209 -1.55083e-06 0.000114276 0.439352 0 0 0 -0.00370888 -5.03333e-05 -2.58476e-06 0.01 
282 1 29 0.0770886 0.126328 0.020209 -2.00383e-06 0.000147656 0.439352 0 0 0 -0.00370888 -5.03333e-05 -2.58476e-06 0.01 
283 1 29 0.0770886 0.126328 0.029209 -2.45683e-06 0.000181036 0.439352 0 0 0 -0.00370888 -5.03333e-05 -2.58476e-06 0.01 
284 1 29 0.0770886 0.126328 0.038209 -2.90983e-06 0.000214416 0.439352 0 0 0 -0.00370888 -5.03333e-05 -2.58476e-06 0.01 
285 1 29 0.0770886 0.126329 0.047209 -3.36283e-06 0.000247796 0.439352 0 0 0 -0.00370888 -5.03333e-05 -2.58476e-06 0.01 
286 1 29 0.0770886 0.126329 0.056209 -3.81583e-06 0.000281176 0.439352 0 0 0 -0.00370888 -5.03333e-05 -2.58476e-06 0.01 
287 1 29 0.0770886 0.126329 0.065209 -4.26882e-06 0.000314556 0.439352 0 0 0 -0.00370888 -5.03333e-05 -2.58476e-06 0.01 
288 1 29 0.0770886 0.126329 0.074209 -4.72182e-06 0.000347936 0.439352 0 0 0 -0.00370888 -5.03333e-05 -2.58476e-06 0.01 
289 1 29 0.0770886 0.12633 0.083209 -5.17482e-06 0.000381316 0.439352 0 0 0 -0.00370888 -5.03333e-05 -2.58476e-06 0.01 
290 1 29 0.0770886 0.12633 0.092209 -5.62782e-06 0.000414696 0.439352 0 0 0 -0.00370888 -5.03333e-05 -2.58476e-06 0.01 
291 1 30 -0.0622987 -0.0566083 0.240431 0 0 -1.68665 0 0 0 0 0 0 0.01 
292 1 30 -0.0622987 -0.0566083 0.249431 0 0 -1.68665 0 0 0 0 0 0 0.01 
293 1 30 -0.0622987 -0.0566083 0.258431 0 0 -1.68665 0 0 0 0 0 0 0.01 
294 1 30 -0.0622987 -0.0566083 0.267431 0 0 -1.68665 0 0 0 0 0 0 0.01 
295 1 30 -0.0622987 -0.0566083 0.276431 0 0 -1.68665 0 0 0 0 0 0 0.01 
296 1 30 -0.0622987 -0.0566083 0.285431 0 0 -1.68665 0 0 0 0 0 0 0.01 
297 1 30 -0.0622987 -0.0566083 0.294431 0 0 -1.68665 0 0 0 0 0 0 0.01 
298 1 30 -0.0622987 -0.0566083 0.303431 0 0 -1.68665 0 0 0 0 0 0 0.01 
299 1 30 -0.0622987 -0.0566083 0.312431 0 0 -1.68665 0 0 0 0 0 0 0.01 
300 1 30 -0.0622987 -0.0566083 0.321431 0 0 -1.68665 0 0 0 0 0 0 0.01 
301 1 31 0.0113793 0.0644476 0.00965016 0.0400125 0.0382234 -0.475026 -1.10993 -1.0641 18.0601 -1.42704 1.50193 0.0149217 0.01 
302 1 31 0.0114681 0.064532 0.0186493 0.0535274 0.0510669 -0.47528 0 0 0 -1.42704 1.50193 0.0149217 0.01 
303 1 31 0.0115568 0.0646164 0.0276485 0.0670423 0.0639103 -0.475534 0 0 0 -1.42704 1.50193 0.0149217 0.01 
304 1 31 0.0116455 0.0647009 0.0366477 0.0805572 0.0767538 -0.475787 0 0 0 -1.42704 1.50193 0.0149217 0.01 
305 1 31 0.0117343 0.0647853 0.0456468 0.0940721 0.0895973 -0.476041 0 0 0 -1.42704 1.50193 0.0149217 0.01 
306 1 31 0.011823 0.0648697 0.054646 0.107587 0.102441 -0.476295 0 0 0 -1.42704 1.50193 0.0149217 0.01 
307 1 31 0.0119117 0.0649541 0.0636452 0.121102 0.115284 -0.476549 0 0 0 -1.42704 1.50193 0.0149217 0.01 
308 1 31 0.0120005 0.0650386 0.0726443 0.134617 0.128128 -0.476802 0 0 0 -1.42704 1.50193 0.0149217 0.01 
309 1 31 0.0120892 0.065123 0.0816435 0.148132 0.140971 -0.477056 0 0 0 -1.42704 1.50193 0.0149217 0.01 
310 1 31 0.0121779 0.0652074 0.0906427 0.161647 0.153815 -0.47731 0 0 0 -1.42704 1.50193 0.0149217 0.01 
311 1 32 0.0320384 -0.0315173 0.0636767 0 0 -1.68665 0 0 0 0 0 0 0.01 
312 1 32 0.0320384 -0.0315173 0.0726767 0 0 -1.68665 0 0 0 0 0 0 0.01 
313 1 32 0.0320384 -0.0315173 0.0816767 0 0 -1.68665 0 0 0 0 0 0 0.01 
314 1 32 0.0320384 -0.0315173 0.0906767 0 0 -1.68665 0 0 0 0 0 0 0.01 
315 1 32 0.0320384 -0.0315173 0.0996767 0 0 -1.68665 0 0 0 0 0 0 0.01 
316 1 32 0.0320384 -0.0315173 0.108677 0 0 -1.68665 0 0 0 0 0 0 0.01 
317 1 32 0.0320384 -0.0315173 0.117677 0 0 -1.68665 0 0 0 0 0 0 0.01 
318 1 32 0.0320384 -0.0315173 0.126677 0 0 -1.68665 0 0 0 0 0 0 0.01 
319 1 32 0.0320384 -0.0315173 0.135677 0 0 -1.68665 0 0 0 0 0 0 0.01 
320 1 32 0.0320384 -0.0315173 0.144677 0 0 -1.68665 0 0 0 0 0 0 0.01 
321 1 33 -0.164367 -0.0225208 0.185933 0 0 -1.68665 0 0 0 0 0 0 0.01 
322 1 33 -0.164367 -0.0225208 0.194933 0 0 -1.68665 0 0 0 0 0 0 0.01 
323 1 33 -0.164367 -0.0225208 0.203933 0 0 -1.68665 0 0 0 0 0 0 0.01 
324 1 33 -0.164367 -0.0225208 0.212933 0 0 -1.68665 0 0 0 0 0 0 0.01 
325 1 33 -0.164367 -0.0225208 0.221933 0 0 -1.68665 0 0 0 0 0 0 0.01 
326 1 33 -0.164367 -0.0225208 0.230933 0 0 -1.68665 0 0 0 0 0 0 0.01 
327 1 33 -0.164367 -0.0225208 0.239933 0 0 -1.68665 0 0 0 0 0 0 0.01 
328 1 33 -0.164367 -0.0225208 0.248933 0 0 -1.68665 0 0 0 0 0 0 0.01 
329 1 33 -0.164367 -0.0225208 0.257933 0 0 -1.68665 0 0 0 0 0 0 0.01 
330 1 33 -0.164367 -0.0225208 0.266933 0 0 -1.68665 0 0 0 0 0 0 0.01 
331 1 34 -0.0753724 0.213735 0.036537 0 0 -1.68665 0 0 0 0 0 0 0.01 
332 1 34 -0.0753724 0.213735 0.045537 0 0 -1.68665 0 0 0 0 0 0 0.01 
333 1 34 -0.0753724 0.213735 0.054537 0 0 -1.68665 0 0 0 0 0 0 0.01 
334 1 34 -0.0753724 0.213735 0.063537 0 0 -1.68665 0 0 0 0 0 0 0.01 
335 1 34 -0.0753724 0.213735 0.072537 0 0 -1.68665 0 0 0 0 0 0 0.01 
336 1 34 -0.0753724 0.213735 0.081537 0 0 -1.68665 0 0 0 0 0 0 0.01 
337 1 34 -0.0753724 0.213735 0.090537 0 0 -1.68665 0 0 0 0 0 0 0.01 
338 1 34 -0.0753724 0.213735 0.099537 0 0 -1.68665 0 0 0 0 0 0 0.01 
339 1 34 -0.0753724 0.213735 0.108537 0 0 -1.68665 0 0 0 0 0 0 0.01 
340 1 34 -0.0753724 0.213735 0.117537 0 0 -1.68665 0 0 0 0 0 0 0.01 
341 1 35 0.107324 -0.21107 0.2166 0 0 -1.68665 0 0 0 0 0 0 0.01 
342 1 35 0.107324 -0.21107 0.2256 0 0 -1.68665 0 0 0 0 0 0 0.01 
343 1 35 0.107324 -0.21107 0.2346 0 0 -1.68665 0 0 0 0 0 0 0.01 
344 1 35 0.107324 -0.21107 0.2436 0 0 -1.68665 0 0 0 0 0 0 0.01 
345 1 35 0.107324 -0.21107 0.2526 0 0 -1.68665 0 0 0 0 0 0 0.01 
346 1 35 0.107324 -0.21107 0.2616 0 0 -1.68665 0 0 0 0 0 0 0.01 
347 1 35 0.107324 -0.21107 0.2706 0 0 -1.68665 0 0 0 0 0 0 0.01 
348 1 35 0.107324 -0.21107 0.2796 0 0 -1.68665 0 0 0 0 0 0 0.01 
349 1 35 0.107324 -0.21107 0.2886 0 0 -1.68665 0 0 0 0 0 0 0.01 
350 1 35 0.107324 -0.21107 0.2976 0 0 -1.68665 0 0 0 0 0 0 0.01 
351 1 36 -0.0369915 -0.217979 0.149739 0 0 -1.68665 0 0 0 0 0 0 0.01 
352 1 36 -0.0369915 -0.217979 0.158739 0 0 -1.68665 0 0 0 0 0 0 0.01 
353 1 36 -0.0369915 -0.217979 0.167739 0 0 -1.68665 0 0 0 0 0 0 0.01 
354 1 36 -0.0369915 -0.217979 0.176739 0 0 -1.68665 0 0 0 0 0 0 0.01 
355 1 36 -0.0369915 -0.217979 0.185739 0 0 -1.68665 0 0 0 0 0 0 0.01 
356 1 36 -0.0369915 -0.217979 0.194739 0 0 -1.68665 0 0 0 0 0 0 0.01 
357 1 36 -0.0369915 -0.217979 0.203739 0 0 -1.68665 0 0 0 0 0 0 0.01 
358 1 36 -0.0369915 -0.217979 0.212739 0 0 -1.68665 0 0 0 0 0 0 0.01 
359 1 36 -0.0369915 -0.217979 0.221739 0 0 -1.68665 0 0 0 0 0 0 0.01 
360 1 36 -0.0369915 -0.217979 0.230739 0 0 -1.68665 0 0 0 0 0 0 0.01 