ITEM: TIMESTEP
35000
ITEM: NUMBER OF ATOMS
6300
ITEM: BOX BOUNDS mm mm mm
-0.371296 0.361047
-0.338947 0.379955
0 0.5
ITEM: ATOMS id type mol x y z vx vy vz fx fy fz omegax omegay omegaz radius 
1 1 1 -0.142463 -0.112348 0.0830068 -0.263381 0.00023255 -0.117826 0.0894343 -0.0128509 0.0880067 6.82233 4.81753 -5.24714 0.01 
2 1 1 -0.142304 -0.118796 0.0892836 -0.266976 -0.0434216 -0.16258 -0.216949 0.0864219 0.174202 6.82233 4.81753 -5.24714 0.01 
3 1 1 -0.142146 -0.125244 0.0955604 -0.270572 -0.0870757 -0.207334 -0.116387 -0.0775884 0.869672 6.82233 4.81753 -5.24714 0.01 
4 1 1 -0.141987 -0.131692 0.101837 -0.274167 -0.13073 -0.252089 0 0 0 6.82233 4.81753 -5.24714 0.01 
5 1 1 -0.141829 -0.13814 0.108114 -0.277762 -0.174384 -0.296843 -0.0213049 -0.0522181 -0.27462 6.82233 4.81753 -5.24714 0.01 
6 1 1 -0.14167 -0.144588 0.114391 -0.281357 -0.218038 -0.341597 0 0 0 6.82233 4.81753 -5.24714 0.01 
7 1 1 -0.141512 -0.151036 0.120668 -0.284952 -0.261692 -0.386351 0 0 0 6.82233 4.81753 -5.24714 0.01 
8 1 1 -0.141353 -0.157484 0.126944 -0.288547 -0.305346 -0.431106 0 0 0 6.82233 4.81753 -5.24714 0.01 
9 1 1 -0.141194 -0.163932 0.133221 -0.292142 -0.349001 -0.47586 0 0 0 6.82233 4.81753 -5.24714 0.01 
10 1 1 -0.141036 -0.17038 0.139498 -0.295737 -0.392655 -0.520614 0 0 0 6.82233 4.81753 -5.24714 0.01 
11 1 2 -0.0216083 -0.128841 0.0249817 -0.0155838 -0.0835727 -0.121678 0.597344 0.955116 0.781978 1.02845 -1.66644 2.26593 0.01 
12 1 2 -0.0244614 -0.130645 0.0333246 -0.0253976 -0.0986177 -0.128288 0 0 0 1.02845 -1.66644 2.26593 0.01 
13 1 2 -0.0273145 -0.13245 0.0416674 -0.0352113 -0.113663 -0.134899 0 0 0 1.02845 -1.66644 2.26593 0.01 
14 1 2 -0.0301675 -0.134255 0.0500103 -0.0450251 -0.128708 -0.141509 0 0 0 1.02845 -1.66644 2.26593 0.01 
15 1 2 -0.0330206 -0.136059 0.0583531 -0.0548388 -0.143753 -0.14812 -0.690765 -0.322986 -0.834015 1.02845 -1.66644 2.26593 0.01 
16 1 2 -0.0358737 -0.137864 0.066696 -0.0646526 -0.158798 -0.15473 0.14246 -0.376521 0.0692494 1.02845 -1.66644 2.26593 0.01 
17 1 2 -0.0387268 -0.139668 0.0750389 -0.0744664 -0.173843 -0.16134 0.0856071 -0.553676 0.370257 1.02845 -1.66644 2.26593 0.01 
18 1 2 -0.0415798 -0.141473 0.0833817 -0.0842801 -0.188888 -0.167951 0 0 0 1.02845 -1.66644 2.26593 0.01 
19 1 2 -0.0444329 -0.143278 0.0917246 -0.0940939 -0.203933 -0.174561 0 0 0 1.02845 -1.66644 2.26593 0.01 
20 1 2 -0.047286 -0.145082 0.100067 -0.103908 -0.218978 -0.181172 0.124354 0.591702 0.678576 1.02845 -1.66644 2.26593 0.01 
21 1 3 -0.0278966 -0.0418908 0.0102037 0.0295811 -0.121253 -0.0554613 0 0 0 -2.48618 -4.74102 2.23547 0.01 
22 1 3 -0.031775 -0.0473723 0.0161963 0.013424 -0.115024 -0.0602208 0 0 0 -2.48618 -4.74102 2.23547 0.01 
23 1 3 -0.0356534 -0.0528539 0.0221889 -0.00273318 -0.108796 -0.0649803 0.146373 0.0165125 0.0212576 -2.48618 -4.74102 2.23547 0.01 
24 1 3 -0.0395318 -0.0583354 0.0281815 -0.0188903 -0.102567 -0.0697398 0 0 0 -2.48618 -4.74102 2.23547 0.01 
25 1 3 -0.0434102 -0.0638169 0.034174 -0.0350475 -0.0963384 -0.0744994 0 0 0 -2.48618 -4.74102 2.23547 0.01 
26 1 3 -0.0472886 -0.0692984 0.0401666 -0.0512047 -0.0901098 -0.0792589 0 0 0 -2.48618 -4.74102 2.23547 0.01 
27 1 3 -0.051167 -0.0747799 0.0461592 -0.0673618 -0.0838812 -0.0840184 -0.0141089 0.324407 0.780957 -2.48618 -4.74102 2.23547 0.01 
28 1 3 -0.0550454 -0.0802614 0.0521518 -0.083519 -0.0776526 -0.0887779 -0.506506 0.196272 0.514632 -2.48618 -4.74102 2.23547 0.01 
29 1 3 -0.0589238 -0.0857429 0.0581444 -0.0996762 -0.071424 -0.0935375 0 0 0 -2.48618 -4.74102 2.23547 0.01 
30 1 3 -0.0628022 -0.0912244 0.064137 -0.115833 -0.0651954 -0.098297 0.366664 -0.332286 -0.417509 -2.48618 -4.74102 2.23547 0.01 
31 1 4 -0.0883543 0.121309 0.0100081 -0.0316659 0.115115 0.00913465 -1.16037 0.369996 -1.48615 0.245991 -1.89194 0.350762 0.01 
32 1 4 -0.0910499 0.127295 0.0161649 -0.0454137 0.112655 0.00550711 -0.197694 0.671114 -1.21654 0.245991 -1.89194 0.350762 0.01 
33 1 4 -0.0937455 0.13328 0.0223217 -0.0591616 0.110195 0.00187956 1.15149 -0.696757 2.09849 0.245991 -1.89194 0.350762 0.01 
34 1 4 -0.0964411 0.139266 0.0284786 -0.0729094 0.107735 -0.00174798 0.657857 -0.578016 1.64175 0.245991 -1.89194 0.350762 0.01 
35 1 4 -0.0991368 0.145251 0.0346354 -0.0866573 0.105275 -0.00537553 0.108266 -0.264527 0.654271 0.245991 -1.89194 0.350762 0.01 
36 1 4 -0.101832 0.151237 0.0407923 -0.100405 0.102815 -0.00900307 0 0 0 0.245991 -1.89194 0.350762 0.01 
37 1 4 -0.104528 0.157222 0.0469491 -0.114153 0.100355 -0.0126306 0 0 0 0.245991 -1.89194 0.350762 0.01 
38 1 4 -0.107224 0.163208 0.053106 -0.127901 0.0978949 -0.0162582 0 0 0 0.245991 -1.89194 0.350762 0.01 
39 1 4 -0.109919 0.169194 0.0592628 -0.141649 0.0954348 -0.0198857 -0.567342 0.545871 -0.650389 0.245991 -1.89194 0.350762 0.01 
40 1 4 -0.112615 0.175179 0.0654197 -0.155397 0.0929748 -0.0235132 -0.322415 0.313125 -0.410669 0.245991 -1.89194 0.350762 0.01 
41 1 5 0.0796237 -0.135474 0.00987308 0.011463 -0.0388664 -0.00943516 -0.263458 -0.329931 1.3513 -0.0819522 1.55232 2.72227 0.01 
42 1 5 0.0807472 -0.134602 0.0187601 0.0228866 -0.0350795 -0.0112506 0 0 0 -0.0819522 1.55232 2.72227 0.01 
43 1 5 0.0818707 -0.133731 0.027647 0.0343101 -0.0312926 -0.0130661 0 0 0 -0.0819522 1.55232 2.72227 0.01 
44 1 5 0.0829943 -0.13286 0.036534 0.0457337 -0.0275058 -0.0148816 0.751343 0.0161198 -0.72515 -0.0819522 1.55232 2.72227 0.01 
45 1 5 0.0841178 -0.131988 0.045421 0.0571572 -0.0237189 -0.0166971 0 0 0 -0.0819522 1.55232 2.72227 0.01 
46 1 5 0.0852413 -0.131117 0.054308 0.0685808 -0.019932 -0.0185126 0 0 0 -0.0819522 1.55232 2.72227 0.01 
47 1 5 0.0863649 -0.130246 0.063195 0.0800043 -0.0161452 -0.0203281 0 0 0 -0.0819522 1.55232 2.72227 0.01 
48 1 5 0.0874884 -0.129374 0.072082 0.0914279 -0.0123583 -0.0221436 0 0 0 -0.0819522 1.55232 2.72227 0.01 
49 1 5 0.0886119 -0.128503 0.080969 0.102851 -0.00857145 -0.0239591 0 0 0 -0.0819522 1.55232 2.72227 0.01 
50 1 5 0.0897354 -0.127632 0.0898559 0.114275 -0.00478459 -0.0257745 0 0 0 -0.0819522 1.55232 2.72227 0.01 
51 1 6 0.191735 -0.0371263 0.0224935 0.0401576 -0.162736 0.0703796 0 0 0 16.0715 10.7753 -3.05647 0.01 
52 1 6 0.184874 -0.0428462 0.0235976 0.0345724 -0.159513 0.0523742 0.0254982 -0.0280502 0.00565333 16.0715 10.7753 -3.05647 0.01 
53 1 6 0.178014 -0.0485661 0.0247018 0.0289872 -0.15629 0.0343689 0 0 0 16.0715 10.7753 -3.05647 0.01 
54 1 6 0.171154 -0.0542859 0.0258059 0.023402 -0.153067 0.0163635 0 0 0 16.0715 10.7753 -3.05647 0.01 
55 1 6 0.164293 -0.0600058 0.0269101 0.0178169 -0.149843 -0.00164187 0 0 0 16.0715 10.7753 -3.05647 0.01 
56 1 6 0.157433 -0.0657257 0.0280142 0.0122317 -0.14662 -0.0196472 0 0 0 16.0715 10.7753 -3.05647 0.01 
57 1 6 0.150573 -0.0714456 0.0291183 0.00664648 -0.143397 -0.0376526 0 0 0 16.0715 10.7753 -3.05647 0.01 
58 1 6 0.143712 -0.0771654 0.0302225 0.0010613 -0.140174 -0.055658 0.366279 -0.0904332 -0.139505 16.0715 10.7753 -3.05647 0.01 
59 1 6 0.136852 -0.0828853 0.0313266 -0.00452389 -0.136951 -0.0736634 0 0 0 16.0715 10.7753 -3.05647 0.01 
60 1 6 0.129992 -0.0886052 0.0324308 -0.0101091 -0.133728 -0.0916687 0 0 0 16.0715 10.7753 -3.05647 0.01 
61 1 7 -0.0439118 0.222785 0.00996023 -0.0204101 0.187131 0.0140645 -0.000302205 -0.00328208 -0.00659193 -0.713361 -3.70924 0.0885855 0.01 
62 1 7 -0.0420282 0.228509 0.0166453 -0.0457138 0.192067 0.0169682 0 0 0 -0.713361 -3.70924 0.0885855 0.01 
63 1 7 -0.0401446 0.234233 0.0233304 -0.0710174 0.197002 0.019872 -0.169949 -0.262279 -0.0020342 -0.713361 -3.70924 0.0885855 0.01 
64 1 7 -0.0382609 0.239957 0.0300155 -0.0963211 0.201938 0.0227757 -0.429409 -0.221908 -0.0635241 -0.713361 -3.70924 0.0885855 0.01 
65 1 7 -0.0363773 0.24568 0.0367006 -0.121625 0.206874 0.0256794 -0.317566 0.524326 0.39906 -0.713361 -3.70924 0.0885855 0.01 
66 1 7 -0.0344937 0.251404 0.0433856 -0.146928 0.211809 0.0285831 0.684819 0.177116 0.176682 -0.713361 -3.70924 0.0885855 0.01 
67 1 7 -0.0326101 0.257128 0.0500707 -0.172232 0.216745 0.0314868 1.01252 -0.0565545 -0.491952 -0.713361 -3.70924 0.0885855 0.01 
68 1 7 -0.0307264 0.262852 0.0567558 -0.197536 0.221681 0.0343905 0 0 0 -0.713361 -3.70924 0.0885855 0.01 
69 1 7 -0.0288428 0.268576 0.0634409 -0.222839 0.226617 0.0372943 0 0 0 -0.713361 -3.70924 0.0885855 0.01 
70 1 7 -0.0269592 0.274299 0.070126 -0.248143 0.231552 0.040198 -0.319784 0.133519 -0.108959 -0.713361 -3.70924 0.0885855 0.01 
71 1 8 0.144731 -0.176982 0.0933559 0.216908 -0.422719 -0.145287 0.000989426 -0.340971 -0.0331327 4.57967 6.22049 1.12229 0.01 
72 1 8 0.152612 -0.17469 0.0970484 0.237305 -0.430785 -0.183811 -0.542885 -0.242364 -0.476284 4.57967 6.22049 1.12229 0.01 
73 1 8 0.160493 -0.172397 0.100741 0.257701 -0.438851 -0.222334 -0.0267469 0.0496111 -0.0626666 4.57967 6.22049 1.12229 0.01 
74 1 8 0.168374 -0.170104 0.104433 0.278097 -0.446917 -0.260858 0 0 0 4.57967 6.22049 1.12229 0.01 
75 1 8 0.176254 -0.167812 0.108126 0.298494 -0.454983 -0.299381 0 0 0 4.57967 6.22049 1.12229 0.01 
76 1 8 0.184135 -0.165519 0.111819 0.31889 -0.463049 -0.337905 0 0 0 4.57967 6.22049 1.12229 0.01 
77 1 8 0.192016 -0.163226 0.115511 0.339286 -0.471115 -0.376428 0 0 0 4.57967 6.22049 1.12229 0.01 
78 1 8 0.199897 -0.160934 0.119204 0.359683 -0.479181 -0.414952 0.00122527 0.0118784 -0.000751578 4.57967 6.22049 1.12229 0.01 
79 1 8 0.207778 -0.158641 0.122896 0.380079 -0.487247 -0.453475 0 0 0 4.57967 6.22049 1.12229 0.01 
80 1 8 0.215659 -0.156348 0.126589 0.400476 -0.495312 -0.491999 0 0 0 4.57967 6.22049 1.12229 0.01 
81 1 9 -0.132656 0.0336352 0.0603821 -0.0388313 -0.199243 -0.242651 0.125965 0.765343 0.407555 0.206826 0.53247 4.99477 0.01 
82 1 9 -0.126243 0.0342886 0.066663 -0.0387504 -0.168511 -0.24593 0 0 0 0.206826 0.53247 4.99477 0.01 
83 1 9 -0.119831 0.034942 0.0729438 -0.0386695 -0.13778 -0.24921 0 0 0 0.206826 0.53247 4.99477 0.01 
84 1 9 -0.113418 0.0355954 0.0792246 -0.0385887 -0.107048 -0.252489 0.119141 -0.43288 -0.747347 0.206826 0.53247 4.99477 0.01 
85 1 9 -0.107005 0.0362488 0.0855055 -0.0385078 -0.0763166 -0.255769 0 0 0 0.206826 0.53247 4.99477 0.01 
86 1 9 -0.100592 0.0369021 0.0917863 -0.0384269 -0.045585 -0.259048 0 0 0 0.206826 0.53247 4.99477 0.01 
87 1 9 -0.0941794 0.0375555 0.0980671 -0.0383461 -0.0148535 -0.262328 0 0 0 0.206826 0.53247 4.99477 0.01 
88 1 9 -0.0877665 0.0382089 0.104348 -0.0382652 0.015878 -0.265607 0 0 0 0.206826 0.53247 4.99477 0.01 
89 1 9 -0.0813537 0.0388623 0.110629 -0.0381844 0.0466096 -0.268887 0 0 0 0.206826 0.53247 4.99477 0.01 
90 1 9 -0.0749409 0.0395157 0.11691 -0.0381035 0.0773411 -0.272166 0 0 0 0.206826 0.53247 4.99477 0.01 
91 1 10 0.0702733 0.245541 0.0956504 0.212195 0.566051 -0.259947 -0.540917 0.262654 0.737336 6.44743 -9.98617 -5.54364 0.01 
92 1 10 0.0639833 0.249016 0.101069 0.177351 0.565985 -0.300353 0 0 0 6.44743 -9.98617 -5.54364 0.01 
93 1 10 0.0576934 0.252492 0.106487 0.142507 0.56592 -0.340759 0 0 0 6.44743 -9.98617 -5.54364 0.01 
94 1 10 0.0514034 0.255967 0.111906 0.107664 0.565854 -0.381166 0 0 0 6.44743 -9.98617 -5.54364 0.01 
95 1 10 0.0451134 0.259442 0.117324 0.0728199 0.565789 -0.421572 0 0 0 6.44743 -9.98617 -5.54364 0.01 
96 1 10 0.0388235 0.262917 0.122742 0.0379763 0.565723 -0.461978 0 0 0 6.44743 -9.98617 -5.54364 0.01 
97 1 10 0.0325335 0.266393 0.128161 0.0031326 0.565658 -0.502385 0 0 0 6.44743 -9.98617 -5.54364 0.01 
98 1 10 0.0262435 0.269868 0.133579 -0.0317111 0.565592 -0.542791 0 0 0 6.44743 -9.98617 -5.54364 0.01 
99 1 10 0.0199536 0.273343 0.138998 -0.0665547 0.565527 -0.583197 0 0 0 6.44743 -9.98617 -5.54364 0.01 
100 1 10 0.0136636 0.276818 0.144416 -0.101398 0.565461 -0.623604 0 0 0 6.44743 -9.98617 -5.54364 0.01 
101 1 11 -0.245365 -0.0850221 0.0117888 -0.0632417 -0.123211 0.139061 0.587284 -0.493918 -0.390181 5.13001 7.32727 -10.9466 0.01 
102 1 11 -0.245529 -0.0914882 0.0180469 -0.0881676 -0.153526 0.107087 0 0 0 5.13001 7.32727 -10.9466 0.01 
103 1 11 -0.245692 -0.0979542 0.024305 -0.113093 -0.183841 0.0751143 0.209724 0.673514 0.908918 5.13001 7.32727 -10.9466 0.01 
104 1 11 -0.245855 -0.10442 0.0305631 -0.138019 -0.214156 0.0431411 0 0 0 5.13001 7.32727 -10.9466 0.01 
105 1 11 -0.246019 -0.110886 0.0368212 -0.162945 -0.244471 0.0111678 -2.1322 0.277555 0.421853 5.13001 7.32727 -10.9466 0.01 
106 1 11 -0.246182 -0.117352 0.0430793 -0.187871 -0.274786 -0.0208054 0 0 0 5.13001 7.32727 -10.9466 0.01 
107 1 11 -0.246346 -0.123818 0.0493374 -0.212797 -0.305102 -0.0527786 0.403386 -0.402146 -0.15251 5.13001 7.32727 -10.9466 0.01 
108 1 11 -0.246509 -0.130284 0.0555955 -0.237723 -0.335417 -0.0847518 0 0 0 5.13001 7.32727 -10.9466 0.01 
109 1 11 -0.246673 -0.13675 0.0618536 -0.262649 -0.365732 -0.116725 0 0 0 5.13001 7.32727 -10.9466 0.01 
110 1 11 -0.246836 -0.143216 0.0681118 -0.287575 -0.396047 -0.148698 0 0 0 5.13001 7.32727 -10.9466 0.01 
111 1 12 0.119782 0.0446112 0.0513253 0.0702661 -0.0622101 -0.0188478 -0.0705615 0.547148 0.483281 -2.9122 -3.59827 -13.9203 0.01 
112 1 12 0.120961 0.0485114 0.0593501 0.0956828 -0.055256 -0.0259627 0 0 0 -2.9122 -3.59827 -13.9203 0.01 
113 1 12 0.122141 0.0524116 0.067375 0.1211 -0.0483019 -0.0330776 0 0 0 -2.9122 -3.59827 -13.9203 0.01 
114 1 12 0.12332 0.0563119 0.0753998 0.146516 -0.0413478 -0.0401924 -0.254312 -0.331324 -0.510821 -2.9122 -3.59827 -13.9203 0.01 
115 1 12 0.124499 0.0602121 0.0834246 0.171933 -0.0343937 -0.0473073 0.225435 -0.550424 0.603806 -2.9122 -3.59827 -13.9203 0.01 
116 1 12 0.125678 0.0641123 0.0914494 0.19735 -0.0274396 -0.0544222 0 0 0 -2.9122 -3.59827 -13.9203 0.01 
117 1 12 0.126858 0.0680125 0.0994742 0.222766 -0.0204855 -0.0615371 -0.0694565 0.00145621 -0.0407254 -2.9122 -3.59827 -13.9203 0.01 
118 1 12 0.128037 0.0719127 0.107499 0.248183 -0.0135315 -0.068652 0 0 0 -2.9122 -3.59827 -13.9203 0.01 
119 1 12 0.129216 0.0758129 0.115524 0.2736 -0.00657737 -0.0757668 0 0 0 -2.9122 -3.59827 -13.9203 0.01 
120 1 12 0.130395 0.0797131 0.123549 0.299017 0.000376725 -0.0828817 0 0 0 -2.9122 -3.59827 -13.9203 0.01 
121 1 13 3.53523e-05 0.287515 0.0686442 -0.025588 0.160764 -0.0868513 0.296364 0.0808827 0.443712 -0.0404125 -2.37148 0.835577 0.01 
122 1 13 -0.00374362 0.282557 0.0751354 -0.0368388 0.157869 -0.0956127 0 0 0 -0.0404125 -2.37148 0.835577 0.01 
123 1 13 -0.0075226 0.277599 0.0816266 -0.0480896 0.154974 -0.104374 0 0 0 -0.0404125 -2.37148 0.835577 0.01 
124 1 13 -0.0113016 0.272641 0.0881179 -0.0593404 0.152078 -0.113135 0 0 0 -0.0404125 -2.37148 0.835577 0.01 
125 1 13 -0.0150806 0.267683 0.0946091 -0.0705912 0.149183 -0.121897 0 0 0 -0.0404125 -2.37148 0.835577 0.01 
126 1 13 -0.0188595 0.262724 0.1011 -0.0818419 0.146288 -0.130658 0 0 0 -0.0404125 -2.37148 0.835577 0.01 
127 1 13 -0.0226385 0.257766 0.107591 -0.0930927 0.143392 -0.13942 0 0 0 -0.0404125 -2.37148 0.835577 0.01 
128 1 13 -0.0264175 0.252808 0.114083 -0.104344 0.140497 -0.148181 0 0 0 -0.0404125 -2.37148 0.835577 0.01 
129 1 13 -0.0301965 0.24785 0.120574 -0.115594 0.137602 -0.156942 0 0 0 -0.0404125 -2.37148 0.835577 0.01 
130 1 13 -0.0339754 0.242892 0.127065 -0.126845 0.134706 -0.165704 0 0 0 -0.0404125 -2.37148 0.835577 0.01 
131 1 14 -0.0476482 0.127422 0.0110908 0.0577139 -0.0531018 0.0807456 1.48399 0.91903 -3.31637 -4.50844 -2.82768 -0.441276 0.01 
132 1 14 -0.0464803 0.133377 0.0177369 0.0415488 -0.0236535 0.057199 -0.0910374 -0.120449 0.034762 -4.50844 -2.82768 -0.441276 0.01 
133 1 14 -0.0453124 0.139333 0.024383 0.0253836 0.00579468 0.0336524 -1.74023 -1.35397 6.44019 -4.50844 -2.82768 -0.441276 0.01 
134 1 14 -0.0441445 0.145288 0.0310292 0.00921845 0.0352429 0.0101058 -0.33123 0.201918 -0.344122 -4.50844 -2.82768 -0.441276 0.01 
135 1 14 -0.0429767 0.151243 0.0376753 -0.00694672 0.0646911 -0.0134408 -0.113294 0.130191 -0.294625 -4.50844 -2.82768 -0.441276 0.01 
136 1 14 -0.0418088 0.157198 0.0443214 -0.0231119 0.0941394 -0.0369874 0 0 0 -4.50844 -2.82768 -0.441276 0.01 
137 1 14 -0.0406409 0.163154 0.0509675 -0.039277 0.123588 -0.060534 0 0 0 -4.50844 -2.82768 -0.441276 0.01 
138 1 14 -0.039473 0.169109 0.0576136 -0.0554422 0.153036 -0.0840806 0 0 0 -4.50844 -2.82768 -0.441276 0.01 
139 1 14 -0.0383052 0.175064 0.0642597 -0.0716074 0.182484 -0.107627 0 0 0 -4.50844 -2.82768 -0.441276 0.01 
140 1 14 -0.0371373 0.18102 0.0709058 -0.0877725 0.211932 -0.131174 0.455015 0.0942414 -1.37078 -4.50844 -2.82768 -0.441276 0.01 
141 1 15 -0.00859205 -0.0600225 0.00986953 -0.010874 -0.0323669 -0.0106402 0.201989 0.266004 1.05269 2.78136 -1.2878 -0.473303 0.01 
142 1 15 -0.0127083 -0.063362 0.017143 -0.0218214 -0.0506488 -0.0252297 -0.164962 -0.315643 -0.354179 2.78136 -1.2878 -0.473303 0.01 
143 1 15 -0.0168246 -0.0667016 0.0244165 -0.0327688 -0.0689307 -0.0398192 -0.143583 -0.216658 -0.220149 2.78136 -1.2878 -0.473303 0.01 
144 1 15 -0.0209409 -0.0700412 0.03169 -0.0437163 -0.0872126 -0.0544086 -0.0502872 -0.0713897 -0.0654627 2.78136 -1.2878 -0.473303 0.01 
145 1 15 -0.0250571 -0.0733808 0.0389635 -0.0546637 -0.105495 -0.0689981 -0.0155502 0.0984458 0.00158242 2.78136 -1.2878 -0.473303 0.01 
146 1 15 -0.0291734 -0.0767203 0.0462369 -0.0656111 -0.123776 -0.0835876 0 0 0 2.78136 -1.2878 -0.473303 0.01 
147 1 15 -0.0332897 -0.0800599 0.0535104 -0.0765585 -0.142058 -0.0981771 0 0 0 2.78136 -1.2878 -0.473303 0.01 
148 1 15 -0.0374059 -0.0833995 0.0607839 -0.087506 -0.16034 -0.112767 0.568946 0.166037 0.518748 2.78136 -1.2878 -0.473303 0.01 
149 1 15 -0.0415222 -0.0867391 0.0680574 -0.0984534 -0.178622 -0.127356 -0.213798 0.0072547 -0.233936 2.78136 -1.2878 -0.473303 0.01 
150 1 15 -0.0456385 -0.0900786 0.0753309 -0.109401 -0.196904 -0.141946 0 0 0 2.78136 -1.2878 -0.473303 0.01 
151 1 16 -0.0441946 0.181059 0.0131861 -0.149307 0.107281 0.0348111 -0.30052 0.197681 -1.42404 -3.00668 2.59023 3.2244 0.01 
152 1 16 -0.0425977 0.187879 0.0188377 -0.156657 0.129423 0.0101699 -0.0134026 0.0261761 -0.00538243 -3.00668 2.59023 3.2244 0.01 
153 1 16 -0.0410008 0.194699 0.0244893 -0.164008 0.151565 -0.0144713 -0.192312 -0.285742 1.90571 -3.00668 2.59023 3.2244 0.01 
154 1 16 -0.0394039 0.201519 0.0301409 -0.171359 0.173706 -0.0391125 0.0153129 -0.142453 1.08034 -3.00668 2.59023 3.2244 0.01 
155 1 16 -0.037807 0.208339 0.0357925 -0.17871 0.195848 -0.0637537 0.178207 0.175433 0.326976 -3.00668 2.59023 3.2244 0.01 
156 1 16 -0.0362101 0.215158 0.0414441 -0.18606 0.217989 -0.0883949 0 0 0 -3.00668 2.59023 3.2244 0.01 
157 1 16 -0.0346132 0.221978 0.0470957 -0.193411 0.240131 -0.113036 0 0 0 -3.00668 2.59023 3.2244 0.01 
158 1 16 -0.0330163 0.228798 0.0527473 -0.200762 0.262272 -0.137677 0 0 0 -3.00668 2.59023 3.2244 0.01 
159 1 16 -0.0314194 0.235618 0.0583989 -0.208113 0.284414 -0.162319 0 0 0 -3.00668 2.59023 3.2244 0.01 
160 1 16 -0.0298225 0.242437 0.0640505 -0.215463 0.306556 -0.18696 -0.114902 0.24909 -0.567094 -3.00668 2.59023 3.2244 0.01 
161 1 17 0.0749331 0.0893083 0.00979879 0.0188225 -0.0272378 0.0133029 0.636938 0.225366 2.07997 1.50056 1.76306 4.72269 0.01 
162 1 17 0.0788328 0.0875587 0.0177191 0.0410492 -0.0207052 0.00380199 -0.0983379 -0.600196 -0.0216111 1.50056 1.76306 4.72269 0.01 
163 1 17 0.0827326 0.0858091 0.0256393 0.063276 -0.0141726 -0.00569892 0 0 0 1.50056 1.76306 4.72269 0.01 
164 1 17 0.0866324 0.0840595 0.0335596 0.0855027 -0.00763998 -0.0151998 0 0 0 1.50056 1.76306 4.72269 0.01 
165 1 17 0.0905322 0.0823099 0.0414799 0.107729 -0.00110738 -0.0247007 0 0 0 1.50056 1.76306 4.72269 0.01 
166 1 17 0.0944319 0.0805603 0.0494001 0.129956 0.00542522 -0.0342016 0 0 0 1.50056 1.76306 4.72269 0.01 
167 1 17 0.0983317 0.0788107 0.0573204 0.152183 0.0119578 -0.0437025 0.255443 -0.179224 -0.366514 1.50056 1.76306 4.72269 0.01 
168 1 17 0.102231 0.0770611 0.0652407 0.17441 0.0184904 -0.0532035 0.0910026 -0.0655798 -0.130597 1.50056 1.76306 4.72269 0.01 
169 1 17 0.106131 0.0753115 0.0731609 0.196636 0.025023 -0.0627044 0 0 0 1.50056 1.76306 4.72269 0.01 
170 1 17 0.110031 0.0735619 0.0810812 0.218863 0.0315556 -0.0722053 -0.932536 0.636543 -0.716755 1.50056 1.76306 4.72269 0.01 
171 1 18 -0.327007 -0.043342 0.0111786 -0.0173631 0.024886 -0.0671915 0 0 0 -2.89386 -5.83652 -3.66816 0.01 
172 1 18 -0.324646 -0.0408535 0.0194993 -0.056799 0.0403056 -0.0606146 0 0 0 -2.89386 -5.83652 -3.66816 0.01 
173 1 18 -0.322286 -0.038365 0.0278201 -0.0962348 0.0557252 -0.0540378 0 0 0 -2.89386 -5.83652 -3.66816 0.01 
174 1 18 -0.319925 -0.0358765 0.0361408 -0.135671 0.0711448 -0.047461 0 0 0 -2.89386 -5.83652 -3.66816 0.01 
175 1 18 -0.317564 -0.033388 0.0444615 -0.175106 0.0865644 -0.0408841 0 0 0 -2.89386 -5.83652 -3.66816 0.01 
176 1 18 -0.315204 -0.0308995 0.0527822 -0.214542 0.101984 -0.0343073 0 0 0 -2.89386 -5.83652 -3.66816 0.01 
177 1 18 -0.312843 -0.028411 0.061103 -0.253978 0.117404 -0.0277305 0 0 0 -2.89386 -5.83652 -3.66816 0.01 
178 1 18 -0.310482 -0.0259224 0.0694237 -0.293414 0.132823 -0.0211537 0 0 0 -2.89386 -5.83652 -3.66816 0.01 
179 1 18 -0.308122 -0.0234339 0.0777444 -0.33285 0.148243 -0.0145768 0 0 0 -2.89386 -5.83652 -3.66816 0.01 
180 1 18 -0.305761 -0.0209454 0.0860651 -0.372285 0.163663 -0.008 0 0 0 -2.89386 -5.83652 -3.66816 0.01 
181 1 19 0.0164271 0.219665 0.084756 -0.0580534 0.208982 -0.0720562 -0.0952915 -0.539941 0.603896 1.04832 3.96425 -0.832883 0.01 
182 1 19 0.0164744 0.212596 0.0903267 -0.041857 0.203102 -0.0796539 0 0 0 1.04832 3.96425 -0.832883 0.01 
183 1 19 0.0165217 0.205528 0.0958975 -0.0256605 0.197223 -0.0872515 0 0 0 1.04832 3.96425 -0.832883 0.01 
184 1 19 0.016569 0.198459 0.101468 -0.00946406 0.191344 -0.0948492 0 0 0 1.04832 3.96425 -0.832883 0.01 
185 1 19 0.0166163 0.191391 0.107039 0.00673239 0.185465 -0.102447 0 0 0 1.04832 3.96425 -0.832883 0.01 
186 1 19 0.0166636 0.184322 0.11261 0.0229288 0.179585 -0.110045 0 0 0 1.04832 3.96425 -0.832883 0.01 
187 1 19 0.0167109 0.177254 0.11818 0.0391253 0.173706 -0.117642 0 0 0 1.04832 3.96425 -0.832883 0.01 
188 1 19 0.0167582 0.170185 0.123751 0.0553218 0.167827 -0.12524 0 0 0 1.04832 3.96425 -0.832883 0.01 
189 1 19 0.0168055 0.163116 0.129322 0.0715182 0.161947 -0.132838 0 0 0 1.04832 3.96425 -0.832883 0.01 
190 1 19 0.0168528 0.156048 0.134893 0.0877147 0.156068 -0.140435 0 0 0 1.04832 3.96425 -0.832883 0.01 
191 1 20 -0.00678068 0.194101 0.012545 -0.00522484 0.0555061 0.0391272 0.287693 1.89895 -3.0311 -0.0340625 1.46702 0.183156 0.01 
192 1 20 -0.00479896 0.201347 0.0175029 0.000721626 0.056038 0.0359732 -0.616003 -0.616531 0.680292 -0.0340625 1.46702 0.183156 0.01 
193 1 20 -0.00281724 0.208592 0.0224609 0.00666809 0.0565698 0.0328191 -0.0639485 -1.64161 3.25683 -0.0340625 1.46702 0.183156 0.01 
194 1 20 -0.000835525 0.215837 0.0274188 0.0126146 0.0571017 0.0296651 0.258282 -0.459692 1.29088 -0.0340625 1.46702 0.183156 0.01 
195 1 20 0.00114619 0.223082 0.0323768 0.018561 0.0576335 0.0265111 0.140592 -0.100553 0.234823 -0.0340625 1.46702 0.183156 0.01 
196 1 20 0.00312791 0.230327 0.0373348 0.0245075 0.0581654 0.0233571 0 0 0 -0.0340625 1.46702 0.183156 0.01 
197 1 20 0.00510963 0.237572 0.0422927 0.030454 0.0586972 0.0202031 0 0 0 -0.0340625 1.46702 0.183156 0.01 
198 1 20 0.00709135 0.244817 0.0472507 0.0364004 0.059229 0.0170491 0 0 0 -0.0340625 1.46702 0.183156 0.01 
199 1 20 0.00907307 0.252062 0.0522087 0.0423469 0.0597609 0.013895 -0.595918 0.722084 -0.700938 -0.0340625 1.46702 0.183156 0.01 
200 1 20 0.0110548 0.259307 0.0571666 0.0482934 0.0602927 0.010741 -0.00152388 -0.00533473 -0.0329523 -0.0340625 1.46702 0.183156 0.01 
201 1 21 0.0132284 0.00430611 0.0114139 0.0540054 -0.0151075 -0.014337 -0.0372341 0.136786 -0.0884571 0.409665 -2.39928 -0.946234 0.01 
202 1 21 0.0111818 0.0109576 0.0171208 0.0466068 -0.0155089 -0.0165224 1.05783 0.281998 -0.956446 0.409665 -2.39928 -0.946234 0.01 
203 1 21 0.00913527 0.0176091 0.0228277 0.0392082 -0.0159102 -0.0187078 -0.143007 -0.140978 0.308565 0.409665 -2.39928 -0.946234 0.01 
204 1 21 0.00708869 0.0242607 0.0285346 0.0318096 -0.0163116 -0.0208933 -0.934515 -0.366529 0.52885 0.409665 -2.39928 -0.946234 0.01 
205 1 21 0.00504211 0.0309122 0.0342415 0.024411 -0.016713 -0.0230787 -0.397383 -0.29322 0.662239 0.409665 -2.39928 -0.946234 0.01 
206 1 21 0.00299553 0.0375637 0.0399484 0.0170124 -0.0171144 -0.0252641 0 0 0 0.409665 -2.39928 -0.946234 0.01 
207 1 21 0.000948953 0.0442152 0.0456553 0.00961383 -0.0175157 -0.0274495 0.0228773 0.0225897 -0.0245782 0.409665 -2.39928 -0.946234 0.01 
208 1 21 -0.00109763 0.0508667 0.0513622 0.00221523 -0.0179171 -0.029635 -0.0178225 0.0205124 -0.0188076 0.409665 -2.39928 -0.946234 0.01 
209 1 21 -0.0031442 0.0575182 0.0570692 -0.00518337 -0.0183185 -0.0318204 0.0277183 0.00221089 0.00766822 0.409665 -2.39928 -0.946234 0.01 
210 1 21 -0.00519078 0.0641698 0.0627761 -0.012582 -0.0187199 -0.0340058 0.0810211 0.00460103 0.0239017 0.409665 -2.39928 -0.946234 0.01 
211 1 22 0.0167763 0.276763 0.0674533 0.0359192 0.247185 -0.122062 -1.71655 -3.41282 3.86197 -2.7953 -6.52639 3.02222 0.01 
212 1 22 0.0133739 0.270853 0.0733261 0.0154538 0.253318 -0.127746 0.00152388 0.00533473 0.0329523 -2.7953 -6.52639 3.02222 0.01 
213 1 22 0.0099714 0.264942 0.0791988 -0.0050115 0.259451 -0.13343 0 0 0 -2.7953 -6.52639 3.02222 0.01 
214 1 22 0.00656894 0.259032 0.0850716 -0.0254768 0.265584 -0.139115 0 0 0 -2.7953 -6.52639 3.02222 0.01 
215 1 22 0.00316648 0.253121 0.0909444 -0.0459422 0.271718 -0.144799 0 0 0 -2.7953 -6.52639 3.02222 0.01 
216 1 22 -0.000235981 0.247211 0.0968172 -0.0664075 0.277851 -0.150483 -0.0544226 -0.0638283 -0.433686 -2.7953 -6.52639 3.02222 0.01 
217 1 22 -0.00363844 0.2413 0.10269 -0.0868728 0.283984 -0.156167 0.793894 0.497785 0.0864418 -2.7953 -6.52639 3.02222 0.01 
218 1 22 -0.0070409 0.23539 0.108563 -0.107338 0.290117 -0.161852 0 0 0 -2.7953 -6.52639 3.02222 0.01 
219 1 22 -0.0104434 0.229479 0.114436 -0.127803 0.29625 -0.167536 0 0 0 -2.7953 -6.52639 3.02222 0.01 
220 1 22 -0.0138458 0.223569 0.120308 -0.148269 0.302384 -0.17322 0 0 0 -2.7953 -6.52639 3.02222 0.01 
221 1 23 0.267676 0.0542172 0.0818564 0.355604 0.148385 -0.236772 -0.0641394 0.19367 -0.0675404 0.28945 0.203102 2.76403 0.01 
222 1 23 0.26157 0.0584763 0.0869141 0.344859 0.130045 -0.234299 0 0 0 0.28945 0.203102 2.76403 0.01 
223 1 23 0.255465 0.0627354 0.0919718 0.334114 0.111704 -0.231826 0 0 0 0.28945 0.203102 2.76403 0.01 
224 1 23 0.249359 0.0669946 0.0970295 0.323369 0.0933641 -0.229353 0.598534 -0.0824464 0.408435 0.28945 0.203102 2.76403 0.01 
225 1 23 0.243253 0.0712537 0.102087 0.312624 0.0750239 -0.22688 -0.0288805 0.0159279 -0.191743 0.28945 0.203102 2.76403 0.01 
226 1 23 0.237148 0.0755128 0.107145 0.301879 0.0566836 -0.224407 0 0 0 0.28945 0.203102 2.76403 0.01 
227 1 23 0.231042 0.0797719 0.112203 0.291133 0.0383434 -0.221934 0 0 0 0.28945 0.203102 2.76403 0.01 
228 1 23 0.224936 0.0840311 0.11726 0.280388 0.0200032 -0.219461 0 0 0 0.28945 0.203102 2.76403 0.01 
229 1 23 0.21883 0.0882902 0.122318 0.269643 0.00166293 -0.216988 0 0 0 0.28945 0.203102 2.76403 0.01 
230 1 23 0.212725 0.0925493 0.127376 0.258898 -0.0166773 -0.214516 0 0 0 0.28945 0.203102 2.76403 0.01 
231 1 24 0.173787 0.010279 0.0110418 0.0798871 -0.0982618 -0.013112 0.530672 0.812926 -1.8992 -3.79181 3.35911 -0.557714 0.01 
232 1 24 0.181269 0.0105021 0.0160399 0.0968009 -0.0834821 -0.0390882 -0.0377632 0.00468393 0.0198203 -3.79181 3.35911 -0.557714 0.01 
233 1 24 0.18875 0.0107252 0.0210381 0.113715 -0.0687024 -0.0650644 -0.859072 -1.20519 2.38964 -3.79181 3.35911 -0.557714 0.01 
234 1 24 0.196231 0.0109483 0.0260362 0.130629 -0.0539227 -0.0910407 0 0 0 -3.79181 3.35911 -0.557714 0.01 
235 1 24 0.203712 0.0111714 0.0310344 0.147542 -0.039143 -0.117017 -0.187776 0.0668482 0.421735 -3.79181 3.35911 -0.557714 0.01 
236 1 24 0.211194 0.0113945 0.0360325 0.164456 -0.0243633 -0.142993 0 0 0 -3.79181 3.35911 -0.557714 0.01 
237 1 24 0.218675 0.0116176 0.0410307 0.18137 -0.00958365 -0.168969 0 0 0 -3.79181 3.35911 -0.557714 0.01 
238 1 24 0.226156 0.0118407 0.0460288 0.198284 0.00519604 -0.194946 0 0 0 -3.79181 3.35911 -0.557714 0.01 
239 1 24 0.233637 0.0120638 0.051027 0.215198 0.0199757 -0.220922 0 0 0 -3.79181 3.35911 -0.557714 0.01 
240 1 24 0.241118 0.0122869 0.0560251 0.232111 0.0347554 -0.246898 0.311444 0.170176 -0.967714 -3.79181 3.35911 -0.557714 0.01 
241 1 25 0.143173 -0.2143 0.056288 -0.0938595 -0.24269 -0.483168 0 0 0 6.23691 5.69854 0.851805 0.01 
242 1 25 0.145635 -0.21072 0.0641699 -0.0519935 -0.289751 -0.474874 0 0 0 6.23691 5.69854 0.851805 0.01 
243 1 25 0.148097 -0.207141 0.0720517 -0.0101274 -0.336812 -0.46658 0 0 0 6.23691 5.69854 0.851805 0.01 
244 1 25 0.150559 -0.203561 0.0799336 0.0317386 -0.383873 -0.458286 0 0 0 6.23691 5.69854 0.851805 0.01 
245 1 25 0.153022 -0.199982 0.0878155 0.0736047 -0.430934 -0.449992 0.0569066 0.0126482 -0.0360287 6.23691 5.69854 0.851805 0.01 
246 1 25 0.155484 -0.196402 0.0956973 0.115471 -0.477995 -0.441698 0 0 0 6.23691 5.69854 0.851805 0.01 
247 1 25 0.157946 -0.192823 0.103579 0.157337 -0.525056 -0.433404 0.542885 0.242364 0.476284 6.23691 5.69854 0.851805 0.01 
248 1 25 0.160408 -0.189243 0.111461 0.199203 -0.572118 -0.42511 0.0267469 -0.0496111 0.0626666 6.23691 5.69854 0.851805 0.01 
249 1 25 0.162871 -0.185663 0.119343 0.241069 -0.619179 -0.416816 0 0 0 6.23691 5.69854 0.851805 0.01 
250 1 25 0.165333 -0.182084 0.127225 0.282935 -0.66624 -0.408521 0 0 0 6.23691 5.69854 0.851805 0.01 
251 1 26 -0.00163346 -0.174473 0.00997755 -0.0423698 -0.0101135 0.00491988 -0.0111445 -0.000957359 0.0223712 1.31366 -6.99353 9.98595 0.01 
252 1 26 -0.000927078 -0.181321 0.0157751 -0.0145359 -0.0106757 0.000864655 0 0 0 1.31366 -6.99353 9.98595 0.01 
253 1 26 -0.000220693 -0.188168 0.0215727 0.013298 -0.0112378 -0.00319057 0.0820373 -0.031193 -0.0458527 1.31366 -6.99353 9.98595 0.01 
254 1 26 0.000485693 -0.195016 0.0273703 0.0411319 -0.0117999 -0.0072458 0.332752 -0.234289 -0.274378 1.31366 -6.99353 9.98595 0.01 