ITEM: TIMESTEP
20000
ITEM: NUMBER OF ATOMS
6300
ITEM: BOX BOUNDS mm mm mm
-0.310376 0.330331
-0.3 0.311598
0 0.5
ITEM: ATOMS id type mol x y z vx vy vz fx fy fz omegax omegay omegaz radius 
1 1 1 -0.117237 -0.118695 0.0997425 -0.0855969 -0.0256134 -0.0643647 0.468301 -0.00094797 0.532988 1.16053 -0.511221 5.30374 0.01 
2 1 1 -0.117434 -0.119609 0.108694 -0.0853279 -0.0370453 -0.0655254 0 0 0 1.16053 -0.511221 5.30374 0.01 
3 1 1 -0.117631 -0.120522 0.117645 -0.0850588 -0.0484772 -0.0666862 0 0 0 1.16053 -0.511221 5.30374 0.01 
4 1 1 -0.117828 -0.121436 0.126597 -0.0847898 -0.0599091 -0.067847 0 0 0 1.16053 -0.511221 5.30374 0.01 
5 1 1 -0.118024 -0.122349 0.135548 -0.0845207 -0.0713409 -0.0690078 0 0 0 1.16053 -0.511221 5.30374 0.01 
6 1 1 -0.118221 -0.123263 0.144499 -0.0842517 -0.0827728 -0.0701685 0 0 0 1.16053 -0.511221 5.30374 0.01 
7 1 1 -0.118418 -0.124176 0.153451 -0.0839827 -0.0942047 -0.0713293 0 0 0 1.16053 -0.511221 5.30374 0.01 
8 1 1 -0.118615 -0.12509 0.162402 -0.0837136 -0.105637 -0.0724901 0 0 0 1.16053 -0.511221 5.30374 0.01 
9 1 1 -0.118811 -0.126004 0.171353 -0.0834446 -0.117068 -0.0736508 0.16169 0.00960088 -0.121498 1.16053 -0.511221 5.30374 0.01 
10 1 1 -0.119008 -0.126917 0.180305 -0.0831755 -0.1285 -0.0748116 0 0 0 1.16053 -0.511221 5.30374 0.01 
11 1 2 -0.0240115 -0.110572 0.0430354 0.190143 -0.221845 -0.0885978 -0.595807 0.508281 1.92758 -3.13222 -4.26974 8.13677 0.01 
12 1 2 -0.0255342 -0.110521 0.0519055 0.151855 -0.206452 -0.0952587 0 0 0 -3.13222 -4.26974 8.13677 0.01 
13 1 2 -0.0270568 -0.11047 0.0607756 0.113567 -0.191058 -0.10192 0 0 0 -3.13222 -4.26974 8.13677 0.01 
14 1 2 -0.0285794 -0.110419 0.0696458 0.0752789 -0.175664 -0.10858 0 0 0 -3.13222 -4.26974 8.13677 0.01 
15 1 2 -0.030102 -0.110368 0.0785159 0.036991 -0.16027 -0.115241 0 0 0 -3.13222 -4.26974 8.13677 0.01 
16 1 2 -0.0316247 -0.110317 0.087386 -0.00129693 -0.144876 -0.121902 0.673028 -2.02584 0.343352 -3.13222 -4.26974 8.13677 0.01 
17 1 2 -0.0331473 -0.110266 0.0962561 -0.0395849 -0.129482 -0.128563 0 0 0 -3.13222 -4.26974 8.13677 0.01 
18 1 2 -0.0346699 -0.110215 0.105126 -0.0778728 -0.114088 -0.135224 0 0 0 -3.13222 -4.26974 8.13677 0.01 
19 1 2 -0.0361925 -0.110164 0.113996 -0.116161 -0.0986938 -0.141885 0 0 0 -3.13222 -4.26974 8.13677 0.01 
20 1 2 -0.0377152 -0.110113 0.122866 -0.154449 -0.0832999 -0.148546 -0.173068 0.362093 -0.423796 -3.13222 -4.26974 8.13677 0.01 
21 1 3 -0.027302 -0.0335675 0.00984955 0.0320462 -0.00501768 0.0261527 -0.271197 -0.409561 0.982422 4.36444 0.822699 -5.27086 0.01 
22 1 3 -0.0299063 -0.0377383 0.0173876 0.0162642 -0.0241903 0.0100922 0 0 0 4.36444 0.822699 -5.27086 0.01 
23 1 3 -0.0325106 -0.0419091 0.0249257 0.000482131 -0.043363 -0.00596841 0 0 0 4.36444 0.822699 -5.27086 0.01 
24 1 3 -0.0351148 -0.0460799 0.0324637 -0.0152999 -0.0625357 -0.022029 0 0 0 4.36444 0.822699 -5.27086 0.01 
25 1 3 -0.0377191 -0.0502506 0.0400018 -0.0310819 -0.0817083 -0.0380895 0 0 0 4.36444 0.822699 -5.27086 0.01 
26 1 3 -0.0403234 -0.0544214 0.0475399 -0.0468639 -0.100881 -0.0541501 -0.245131 0.0756772 -0.204324 4.36444 0.822699 -5.27086 0.01 
27 1 3 -0.0429276 -0.0585922 0.0550779 -0.062646 -0.120054 -0.0702107 0 0 0 4.36444 0.822699 -5.27086 0.01 
28 1 3 -0.0455319 -0.062763 0.062616 -0.078428 -0.139226 -0.0862712 0 0 0 4.36444 0.822699 -5.27086 0.01 
29 1 3 -0.0481362 -0.0669337 0.0701541 -0.09421 -0.158399 -0.102332 0 0 0 4.36444 0.822699 -5.27086 0.01 
30 1 3 -0.0507404 -0.0711045 0.0776921 -0.109992 -0.177572 -0.118392 -0.120234 0.108462 0.135231 4.36444 0.822699 -5.27086 0.01 
31 1 4 -0.0881198 0.111903 0.00991059 -0.0110391 0.0311483 -0.00496393 -0.0778832 0.0783395 0.800022 -3.03563 -1.04663 1.49717 0.01 
32 1 4 -0.088361 0.113914 0.0186797 -0.0232279 0.0574069 -0.011321 0 0 0 -3.03563 -1.04663 1.49717 0.01 
33 1 4 -0.0886022 0.115925 0.0274489 -0.0354167 0.0836656 -0.0176781 0 0 0 -3.03563 -1.04663 1.49717 0.01 
34 1 4 -0.0888434 0.117936 0.036218 -0.0476055 0.109924 -0.0240352 0 0 0 -3.03563 -1.04663 1.49717 0.01 
35 1 4 -0.0890847 0.119947 0.0449871 -0.0597943 0.136183 -0.0303923 0 0 0 -3.03563 -1.04663 1.49717 0.01 
36 1 4 -0.0893259 0.121958 0.0537563 -0.0719831 0.162442 -0.0367494 0 0 0 -3.03563 -1.04663 1.49717 0.01 
37 1 4 -0.0895671 0.123969 0.0625254 -0.0841719 0.1887 -0.0431065 0 0 0 -3.03563 -1.04663 1.49717 0.01 
38 1 4 -0.0898083 0.12598 0.0712945 -0.0963607 0.214959 -0.0494636 0 0 0 -3.03563 -1.04663 1.49717 0.01 
39 1 4 -0.0900496 0.127991 0.0800637 -0.108549 0.241218 -0.0558207 0 0 0 -3.03563 -1.04663 1.49717 0.01 
40 1 4 -0.0902908 0.130002 0.0888328 -0.120738 0.267476 -0.0621778 -0.181533 -0.0941852 -0.13225 -3.03563 -1.04663 1.49717 0.01 
41 1 5 0.0782187 -0.135067 0.00979869 0.0594488 0.049996 0.0910237 -0.549082 0.0479958 0.10072 0.498122 1.49316 3.48165 0.01 
42 1 5 0.0787583 -0.133609 0.0186634 0.067609 0.047459 0.0909442 0 0 0 0.498122 1.49316 3.48165 0.01 
43 1 5 0.0792979 -0.132151 0.0275281 0.0757692 0.044922 0.0908648 0 0 0 0.498122 1.49316 3.48165 0.01 
44 1 5 0.0798375 -0.130693 0.0363928 0.0839294 0.0423849 0.0907853 0.759329 -0.0936308 -0.351539 0.498122 1.49316 3.48165 0.01 
45 1 5 0.0803771 -0.129235 0.0452575 0.0920896 0.0398479 0.0907059 0 0 0 0.498122 1.49316 3.48165 0.01 
46 1 5 0.0809166 -0.127777 0.0541222 0.10025 0.0373109 0.0906264 0 0 0 0.498122 1.49316 3.48165 0.01 
47 1 5 0.0814562 -0.126319 0.062987 0.10841 0.0347738 0.090547 0 0 0 0.498122 1.49316 3.48165 0.01 
48 1 5 0.0819958 -0.124861 0.0718517 0.11657 0.0322368 0.0904675 0 0 0 0.498122 1.49316 3.48165 0.01 
49 1 5 0.0825354 -0.123403 0.0807164 0.12473 0.0296998 0.0903881 0 0 0 0.498122 1.49316 3.48165 0.01 
50 1 5 0.083075 -0.121945 0.0895811 0.132891 0.0271628 0.0903086 -2.01959 -0.938107 -0.403978 0.498122 1.49316 3.48165 0.01 
51 1 6 0.175202 -0.0398761 0.00996452 0.0441246 -0.14084 0.02176 -0.066086 -0.0330135 -0.147746 15.3169 2.03977 -30.0479 0.01 
52 1 6 0.171715 -0.0419256 0.0180042 -0.00105981 -0.15919 -0.00251847 0 0 0 15.3169 2.03977 -30.0479 0.01 
53 1 6 0.168227 -0.0439751 0.0260439 -0.0462443 -0.177539 -0.0267969 0 0 0 15.3169 2.03977 -30.0479 0.01 
54 1 6 0.164739 -0.0460246 0.0340836 -0.0914287 -0.195889 -0.0510754 0.615243 0.199185 0.921468 15.3169 2.03977 -30.0479 0.01 
55 1 6 0.161252 -0.0480741 0.0421232 -0.136613 -0.214238 -0.0753538 0 0 0 15.3169 2.03977 -30.0479 0.01 
56 1 6 0.157764 -0.0501236 0.0501629 -0.181798 -0.232588 -0.0996322 0 0 0 15.3169 2.03977 -30.0479 0.01 
57 1 6 0.154277 -0.0521732 0.0582026 -0.226982 -0.250938 -0.123911 0 0 0 15.3169 2.03977 -30.0479 0.01 
58 1 6 0.150789 -0.0542227 0.0662423 -0.272167 -0.269287 -0.148189 0 0 0 15.3169 2.03977 -30.0479 0.01 
59 1 6 0.147302 -0.0562722 0.074282 -0.317351 -0.287637 -0.172468 0 0 0 15.3169 2.03977 -30.0479 0.01 
60 1 6 0.143814 -0.0583217 0.0823216 -0.362535 -0.305986 -0.196746 0 0 0 15.3169 2.03977 -30.0479 0.01 
61 1 7 -0.0394448 0.217107 0.00993065 0.0197762 0.0240821 -0.00218524 0.0146321 -0.0140292 0.52105 -2.45049 2.09236 -3.18082 0.01 
62 1 7 -0.0394067 0.216578 0.018915 0.0368934 0.0459768 -0.00096977 0 0 0 -2.45049 2.09236 -3.18082 0.01 
63 1 7 -0.0393685 0.216049 0.0278994 0.0540106 0.0678716 0.000245695 0 0 0 -2.45049 2.09236 -3.18082 0.01 
64 1 7 -0.0393303 0.215521 0.0368838 0.0711278 0.0897663 0.00146116 0 0 0 -2.45049 2.09236 -3.18082 0.01 
65 1 7 -0.0392922 0.214992 0.0458682 0.088245 0.111661 0.00267663 0 0 0 -2.45049 2.09236 -3.18082 0.01 
66 1 7 -0.039254 0.214464 0.0548526 0.105362 0.133556 0.00389209 0 0 0 -2.45049 2.09236 -3.18082 0.01 
67 1 7 -0.0392158 0.213935 0.0638369 0.122479 0.15545 0.00510756 -0.141719 0.0215867 -0.0337979 -2.45049 2.09236 -3.18082 0.01 
68 1 7 -0.0391776 0.213406 0.0728213 0.139597 0.177345 0.00632302 0 0 0 -2.45049 2.09236 -3.18082 0.01 
69 1 7 -0.0391395 0.212878 0.0818057 0.156714 0.19924 0.00753849 0 0 0 -2.45049 2.09236 -3.18082 0.01 
70 1 7 -0.0391013 0.212349 0.0907901 0.173831 0.221135 0.00875395 0 0 0 -2.45049 2.09236 -3.18082 0.01 
71 1 8 0.129798 -0.13758 0.107702 0.100236 -0.144356 0.000412779 -0.4161 0.984997 0.55152 -1.1074 2.33867 -3.39034 0.01 
72 1 8 0.131618 -0.13737 0.116513 0.121557 -0.140771 -0.00407827 0 0 0 -1.1074 2.33867 -3.39034 0.01 
73 1 8 0.133439 -0.137159 0.125325 0.142879 -0.137186 -0.00856932 0 0 0 -1.1074 2.33867 -3.39034 0.01 
74 1 8 0.135259 -0.136949 0.134136 0.1642 -0.133601 -0.0130604 0 0 0 -1.1074 2.33867 -3.39034 0.01 
75 1 8 0.13708 -0.136738 0.142948 0.185521 -0.130015 -0.0175514 0 0 0 -1.1074 2.33867 -3.39034 0.01 
76 1 8 0.138901 -0.136527 0.151759 0.206842 -0.12643 -0.0220425 0 0 0 -1.1074 2.33867 -3.39034 0.01 
77 1 8 0.140721 -0.136317 0.160571 0.228163 -0.122845 -0.0265335 0 0 0 -1.1074 2.33867 -3.39034 0.01 
78 1 8 0.142542 -0.136106 0.169382 0.249484 -0.11926 -0.0310246 0 0 0 -1.1074 2.33867 -3.39034 0.01 
79 1 8 0.144362 -0.135896 0.178193 0.270805 -0.115675 -0.0355156 0 0 0 -1.1074 2.33867 -3.39034 0.01 
80 1 8 0.146183 -0.135685 0.187005 0.292126 -0.112089 -0.0400067 0 0 0 -1.1074 2.33867 -3.39034 0.01 
81 1 9 -0.1234 0.0317046 0.104637 -0.111382 0.164599 -0.203805 -0.282127 0.942954 0.977919 2.77215 5.81061 1.70718 0.01 
82 1 9 -0.119622 0.030549 0.112723 -0.0624215 0.148632 -0.228961 0 0 0 2.77215 5.81061 1.70718 0.01 
83 1 9 -0.115844 0.0293934 0.12081 -0.0134611 0.132665 -0.254116 1.51226 -0.789652 -1.98426 2.77215 5.81061 1.70718 0.01 
84 1 9 -0.112066 0.0282378 0.128896 0.0354992 0.116697 -0.279272 0 0 0 2.77215 5.81061 1.70718 0.01 
85 1 9 -0.108288 0.0270822 0.136983 0.0844595 0.10073 -0.304428 0 0 0 2.77215 5.81061 1.70718 0.01 
86 1 9 -0.10451 0.0259266 0.145069 0.13342 0.0847628 -0.329584 0 0 0 2.77215 5.81061 1.70718 0.01 
87 1 9 -0.100732 0.024771 0.153156 0.18238 0.0687955 -0.35474 0 0 0 2.77215 5.81061 1.70718 0.01 
88 1 9 -0.0969537 0.0236154 0.161242 0.231341 0.0528282 -0.379895 0 0 0 2.77215 5.81061 1.70718 0.01 
89 1 9 -0.0931758 0.0224598 0.169329 0.280301 0.0368609 -0.405051 0 0 0 2.77215 5.81061 1.70718 0.01 
90 1 9 -0.0893978 0.0213041 0.177415 0.329261 0.0208936 -0.430207 0 0 0 2.77215 5.81061 1.70718 0.01 
91 1 10 0.0619137 0.201567 0.109635 -0.0764678 0.0703459 0.0327062 -0.036729 0.309945 2.01779 -4.61685 -0.0823257 11.9515 0.01 
92 1 10 0.0598763 0.202667 0.118332 -0.0903327 0.0861491 0.0274591 -0.284818 -0.0229198 -0.266724 -4.61685 -0.0823257 11.9515 0.01 
93 1 10 0.057839 0.203768 0.127029 -0.104198 0.101952 0.0222119 -0.180842 -0.00381178 -0.169864 -4.61685 -0.0823257 11.9515 0.01 
94 1 10 0.0558016 0.204868 0.135726 -0.118063 0.117755 0.0169647 0 0 0 -4.61685 -0.0823257 11.9515 0.01 
95 1 10 0.0537642 0.205968 0.144423 -0.131928 0.133559 0.0117176 0 0 0 -4.61685 -0.0823257 11.9515 0.01 
96 1 10 0.0517268 0.207068 0.15312 -0.145793 0.149362 0.00647042 0 0 0 -4.61685 -0.0823257 11.9515 0.01 
97 1 10 0.0496895 0.208168 0.161817 -0.159658 0.165165 0.00122326 0 0 0 -4.61685 -0.0823257 11.9515 0.01 
98 1 10 0.0476521 0.209269 0.170514 -0.173523 0.180968 -0.0040239 0 0 0 -4.61685 -0.0823257 11.9515 0.01 
99 1 10 0.0456147 0.210369 0.179211 -0.187388 0.196771 -0.00927105 0 0 0 -4.61685 -0.0823257 11.9515 0.01 
100 1 10 0.0435773 0.211469 0.187908 -0.201253 0.212575 -0.0145182 0 0 0 -4.61685 -0.0823257 11.9515 0.01 
101 1 11 -0.219154 -0.096146 0.05635 -0.197525 0.0314826 -0.503509 0.203456 0.0708007 0.146001 3.84868 0.520152 4.97383 0.01 
102 1 11 -0.217022 -0.0969256 0.0650591 -0.189117 0.00856705 -0.507618 0 0 0 3.84868 0.520152 4.97383 0.01 
103 1 11 -0.214891 -0.0977051 0.0737682 -0.18071 -0.0143485 -0.511727 0 0 0 3.84868 0.520152 4.97383 0.01 
104 1 11 -0.212759 -0.0984847 0.0824772 -0.172303 -0.037264 -0.515836 0 0 0 3.84868 0.520152 4.97383 0.01 
105 1 11 -0.210627 -0.0992642 0.0911863 -0.163895 -0.0601795 -0.519945 0 0 0 3.84868 0.520152 4.97383 0.01 
106 1 11 -0.208495 -0.100044 0.0998954 -0.155488 -0.083095 -0.524054 0 0 0 3.84868 0.520152 4.97383 0.01 
107 1 11 -0.206364 -0.100823 0.108604 -0.14708 -0.10601 -0.528164 0 0 0 3.84868 0.520152 4.97383 0.01 
108 1 11 -0.204232 -0.101603 0.117314 -0.138673 -0.128926 -0.532273 0 0 0 3.84868 0.520152 4.97383 0.01 
109 1 11 -0.2021 -0.102382 0.126023 -0.130265 -0.151842 -0.536382 0 0 0 3.84868 0.520152 4.97383 0.01 
110 1 11 -0.199968 -0.103162 0.134732 -0.121858 -0.174757 -0.540491 0 0 0 3.84868 0.520152 4.97383 0.01 
111 1 12 0.0971576 0.053818 0.100801 0.132264 0.0248291 -0.398279 0 0 0 -4.27715 -2.94089 -10.2553 0.01 
112 1 12 0.0995186 0.0554465 0.109331 0.123877 0.0371027 -0.398301 0 0 0 -4.27715 -2.94089 -10.2553 0.01 
113 1 12 0.10188 0.057075 0.117862 0.11549 0.0493763 -0.398323 0 0 0 -4.27715 -2.94089 -10.2553 0.01 
114 1 12 0.104241 0.0587035 0.126393 0.107103 0.0616499 -0.398344 0 0 0 -4.27715 -2.94089 -10.2553 0.01 
115 1 12 0.106602 0.060332 0.134924 0.0987158 0.0739235 -0.398366 0 0 0 -4.27715 -2.94089 -10.2553 0.01 
116 1 12 0.108963 0.0619605 0.143454 0.0903288 0.086197 -0.398388 0 0 0 -4.27715 -2.94089 -10.2553 0.01 
117 1 12 0.111324 0.063589 0.151985 0.0819417 0.0984706 -0.398409 0 0 0 -4.27715 -2.94089 -10.2553 0.01 
118 1 12 0.113685 0.0652175 0.160516 0.0735546 0.110744 -0.398431 0 0 0 -4.27715 -2.94089 -10.2553 0.01 
119 1 12 0.116046 0.066846 0.169047 0.0651675 0.123018 -0.398453 0 0 0 -4.27715 -2.94089 -10.2553 0.01 
120 1 12 0.118407 0.0684745 0.177577 0.0567804 0.135291 -0.398474 0 0 0 -4.27715 -2.94089 -10.2553 0.01 
121 1 13 -0.0112698 0.232736 0.102339 0.100577 0.268192 -0.17872 -0.0896072 0.0362436 0.416708 2.03722 -8.75946 9.43333 0.01 
122 1 13 -0.0136536 0.229562 0.110417 0.0597649 0.22925 -0.206067 0 0 0 2.03722 -8.75946 9.43333 0.01 
123 1 13 -0.0160373 0.226388 0.118494 0.018953 0.190308 -0.233413 -0.00507262 -0.0360319 -0.0439174 2.03722 -8.75946 9.43333 0.01 
124 1 13 -0.0184211 0.223214 0.126571 -0.0218589 0.151366 -0.26076 0 0 0 2.03722 -8.75946 9.43333 0.01 
125 1 13 -0.0208049 0.22004 0.134649 -0.0626708 0.112424 -0.288106 0 0 0 2.03722 -8.75946 9.43333 0.01 
126 1 13 -0.0231886 0.216866 0.142726 -0.103483 0.0734815 -0.315453 0 0 0 2.03722 -8.75946 9.43333 0.01 
127 1 13 -0.0255724 0.213692 0.150803 -0.144295 0.0345395 -0.3428 0 0 0 2.03722 -8.75946 9.43333 0.01 
128 1 13 -0.0279561 0.210518 0.158881 -0.185106 -0.00440261 -0.370146 0 0 0 2.03722 -8.75946 9.43333 0.01 
129 1 13 -0.0303399 0.207344 0.166958 -0.225918 -0.0433447 -0.397493 0 0 0 2.03722 -8.75946 9.43333 0.01 
130 1 13 -0.0327236 0.20417 0.175035 -0.26673 -0.0822868 -0.424839 0 0 0 2.03722 -8.75946 9.43333 0.01 
131 1 14 -0.0461442 0.12175 0.00978201 0.00491943 0.0388455 0.0109763 -0.0611863 -0.142747 2.43177 -3.8285 0.285782 -1.87608 0.01 
132 1 14 -0.0445814 0.123537 0.0184631 0.0107545 0.069149 0.00368476 0 0 0 -3.8285 0.285782 -1.87608 0.01 
133 1 14 -0.0430185 0.125325 0.0271442 0.0165896 0.0994525 -0.00360677 0 0 0 -3.8285 0.285782 -1.87608 0.01 
134 1 14 -0.0414557 0.127113 0.0358252 0.0224247 0.129756 -0.0108983 0 0 0 -3.8285 0.285782 -1.87608 0.01 
135 1 14 -0.0398929 0.128901 0.0445063 0.0282598 0.16006 -0.0181898 0.138664 0.236586 -0.339181 -3.8285 0.285782 -1.87608 0.01 
136 1 14 -0.03833 0.130689 0.0531874 0.0340949 0.190363 -0.0254814 0.32209 0.517455 -0.736482 -3.8285 0.285782 -1.87608 0.01 
137 1 14 -0.0367672 0.132477 0.0618684 0.03993 0.220667 -0.0327729 0.0520931 0.0721832 -0.105056 -3.8285 0.285782 -1.87608 0.01 
138 1 14 -0.0352044 0.134265 0.0705495 0.0457651 0.25097 -0.0400645 0 0 0 -3.8285 0.285782 -1.87608 0.01 
139 1 14 -0.0336415 0.136053 0.0792306 0.0516002 0.281274 -0.047356 0 0 0 -3.8285 0.285782 -1.87608 0.01 
140 1 14 -0.0320787 0.137841 0.0879117 0.0574353 0.311577 -0.0546475 -0.448035 -0.882256 -1.14753 -3.8285 0.285782 -1.87608 0.01 
141 1 15 -0.00501264 -0.0651293 0.0150603 0.0396993 0.0382574 -0.231378 0.0314512 -0.0027723 0.0195707 3.28634 -3.72919 -12.0895 0.01 
142 1 15 -0.00680166 -0.0657632 0.0238579 -0.000772207 0.0309739 -0.240133 0 0 0 3.28634 -3.72919 -12.0895 0.01 
143 1 15 -0.00859067 -0.0663971 0.0326554 -0.0412437 0.0236904 -0.248888 0 0 0 3.28634 -3.72919 -12.0895 0.01 
144 1 15 -0.0103797 -0.067031 0.041453 -0.0817152 0.0164068 -0.257643 0 0 0 3.28634 -3.72919 -12.0895 0.01 
145 1 15 -0.0121687 -0.0676649 0.0502506 -0.122187 0.00912331 -0.266397 0 0 0 3.28634 -3.72919 -12.0895 0.01 
146 1 15 -0.0139577 -0.0682988 0.0590482 -0.162658 0.00183979 -0.275152 0 0 0 3.28634 -3.72919 -12.0895 0.01 
147 1 15 -0.0157467 -0.0689327 0.0678458 -0.20313 -0.00544373 -0.283907 0 0 0 3.28634 -3.72919 -12.0895 0.01 
148 1 15 -0.0175357 -0.0695666 0.0766434 -0.243601 -0.0127273 -0.292662 0 0 0 3.28634 -3.72919 -12.0895 0.01 
149 1 15 -0.0193248 -0.0702005 0.085441 -0.284073 -0.0200108 -0.301417 0 0 0 3.28634 -3.72919 -12.0895 0.01 
150 1 15 -0.0211138 -0.0708344 0.0942386 -0.324544 -0.0272943 -0.310171 0 0 0 3.28634 -3.72919 -12.0895 0.01 
151 1 16 -0.0379778 0.177448 0.0132142 -0.0172078 0.0351723 -0.0162065 0 0 0 -1.70036 1.11599 -1.54399 0.01 
152 1 16 -0.0375697 0.178991 0.0220715 -0.00494079 0.0496029 -0.0192856 0 0 0 -1.70036 1.11599 -1.54399 0.01 
153 1 16 -0.0371616 0.180534 0.0309289 0.00732626 0.0640335 -0.0223647 0 0 0 -1.70036 1.11599 -1.54399 0.01 
154 1 16 -0.0367535 0.182077 0.0397862 0.0195933 0.078464 -0.0254438 0 0 0 -1.70036 1.11599 -1.54399 0.01 
155 1 16 -0.0363454 0.18362 0.0486436 0.0318603 0.0928946 -0.0285228 0 0 0 -1.70036 1.11599 -1.54399 0.01 
156 1 16 -0.0359373 0.185163 0.0575009 0.0441274 0.107325 -0.0316019 0 0 0 -1.70036 1.11599 -1.54399 0.01 
157 1 16 -0.0355292 0.186706 0.0663583 0.0563944 0.121756 -0.034681 0 0 0 -1.70036 1.11599 -1.54399 0.01 
158 1 16 -0.0351211 0.188249 0.0752156 0.0686615 0.136186 -0.0377601 0 0 0 -1.70036 1.11599 -1.54399 0.01 
159 1 16 -0.034713 0.189792 0.084073 0.0809285 0.150617 -0.0408392 0 0 0 -1.70036 1.11599 -1.54399 0.01 
160 1 16 -0.0343049 0.191335 0.0929303 0.0931956 0.165047 -0.0439183 0 0 0 -1.70036 1.11599 -1.54399 0.01 
161 1 17 0.073143 0.0921061 0.00991595 0.030406 -0.00944077 -0.00583121 -0.0461905 -0.0263137 0.61312 0.934277 2.72771 -3.3699 0.01 
162 1 17 0.0742048 0.0908696 0.0187672 0.0503827 -0.0212884 -0.00988269 0 0 0 0.934277 2.72771 -3.3699 0.01 
163 1 17 0.0752666 0.0896331 0.0276183 0.0703594 -0.033136 -0.0139342 0 0 0 0.934277 2.72771 -3.3699 0.01 
164 1 17 0.0763284 0.0883966 0.0364695 0.090336 -0.0449835 -0.0179857 0 0 0 0.934277 2.72771 -3.3699 0.01 
165 1 17 0.0773902 0.0871601 0.0453207 0.110313 -0.0568311 -0.0220371 0 0 0 0.934277 2.72771 -3.3699 0.01 
166 1 17 0.078452 0.0859236 0.0541719 0.130289 -0.0686787 -0.0260886 0 0 0 0.934277 2.72771 -3.3699 0.01 
167 1 17 0.0795138 0.0846871 0.0630231 0.150266 -0.0805263 -0.0301401 0 0 0 0.934277 2.72771 -3.3699 0.01 
168 1 17 0.0805756 0.0834506 0.0718743 0.170243 -0.0923739 -0.0341916 0 0 0 0.934277 2.72771 -3.3699 0.01 
169 1 17 0.0816373 0.0822141 0.0807255 0.190219 -0.104221 -0.0382431 0 0 0 0.934277 2.72771 -3.3699 0.01 
170 1 17 0.0826991 0.0809776 0.0895767 0.210196 -0.116069 -0.0422946 0 0 0 0.934277 2.72771 -3.3699 0.01 
171 1 18 -0.26935 -0.0453327 0.0759755 -0.358891 0.0784201 -0.600325 0 0 0 9.23007 7.87055 17.5683 0.01 
172 1 18 -0.265374 -0.0435623 0.0838532 -0.327994 0.0755609 -0.615277 0 0 0 9.23007 7.87055 17.5683 0.01 
173 1 18 -0.261398 -0.0417918 0.0917308 -0.297096 0.0727017 -0.630229 0 0 0 9.23007 7.87055 17.5683 0.01 
174 1 18 -0.257422 -0.0400214 0.0996084 -0.266199 0.0698425 -0.645181 0 0 0 9.23007 7.87055 17.5683 0.01 
175 1 18 -0.253446 -0.0382509 0.107486 -0.235301 0.0669832 -0.660133 0 0 0 9.23007 7.87055 17.5683 0.01 
176 1 18 -0.24947 -0.0364805 0.115364 -0.204403 0.064124 -0.675086 0 0 0 9.23007 7.87055 17.5683 0.01 
177 1 18 -0.245494 -0.0347101 0.123241 -0.173506 0.0612648 -0.690038 0 0 0 9.23007 7.87055 17.5683 0.01 
178 1 18 -0.241518 -0.0329396 0.131119 -0.142608 0.0584056 -0.70499 0 0 0 9.23007 7.87055 17.5683 0.01 
179 1 18 -0.237542 -0.0311692 0.138996 -0.11171 0.0555464 -0.719942 0 0 0 9.23007 7.87055 17.5683 0.01 
180 1 18 -0.233566 -0.0293987 0.146874 -0.0808128 0.0526872 -0.734894 0.102564 0.0146751 0.0360216 9.23007 7.87055 17.5683 0.01 
181 1 19 0.0116676 0.178007 0.109551 0.293242 0.175995 -0.0959635 0 0 0 2.62043 -9.70521 10.9533 0.01 
182 1 19 0.0111364 0.175302 0.118119 0.239723 0.147727 -0.108207 0 0 0 2.62043 -9.70521 10.9533 0.01 
183 1 19 0.0106053 0.172597 0.126686 0.186204 0.119459 -0.12045 0 0 0 2.62043 -9.70521 10.9533 0.01 
184 1 19 0.0100742 0.169892 0.135253 0.132684 0.091191 -0.132693 0 0 0 2.62043 -9.70521 10.9533 0.01 
185 1 19 0.00954303 0.167187 0.143821 0.0791646 0.062923 -0.144936 0 0 0 2.62043 -9.70521 10.9533 0.01 
186 1 19 0.0090119 0.164482 0.152388 0.0256452 0.0346549 -0.157179 0 0 0 2.62043 -9.70521 10.9533 0.01 
187 1 19 0.00848076 0.161777 0.160956 -0.0278743 0.00638694 -0.169423 0 0 0 2.62043 -9.70521 10.9533 0.01 
188 1 19 0.00794962 0.159072 0.169523 -0.0813937 -0.0218811 -0.181666 0 0 0 2.62043 -9.70521 10.9533 0.01 
189 1 19 0.00741849 0.156367 0.17809 -0.134913 -0.0501491 -0.193909 0 0 0 2.62043 -9.70521 10.9533 0.01 
190 1 19 0.00688735 0.153662 0.186658 -0.188433 -0.0784171 -0.206152 0 0 0 2.62043 -9.70521 10.9533 0.01 
191 1 20 -0.00601247 0.189347 0.00989297 0.0197721 0.049183 -0.0243258 0.04659 -0.0914309 1.40193 -3.27294 2.43212 3.30729 0.01 
192 1 20 -0.00525174 0.191676 0.0185531 0.0331319 0.0800429 -0.0337985 0 0 0 -3.27294 2.43212 3.30729 0.01 
193 1 20 -0.004491 0.194005 0.0272132 0.0464918 0.110903 -0.0432712 0 0 0 -3.27294 2.43212 3.30729 0.01 
194 1 20 -0.00373027 0.196334 0.0358733 0.0598516 0.141763 -0.0527439 0 0 0 -3.27294 2.43212 3.30729 0.01 
195 1 20 -0.00296954 0.198663 0.0445334 0.0732114 0.172623 -0.0622166 0 0 0 -3.27294 2.43212 3.30729 0.01 
196 1 20 -0.00220881 0.200992 0.0531935 0.0865713 0.203483 -0.0716893 0 0 0 -3.27294 2.43212 3.30729 0.01 
197 1 20 -0.00144807 0.203321 0.0618536 0.0999311 0.234342 -0.081162 0 0 0 -3.27294 2.43212 3.30729 0.01 
198 1 20 -0.000687339 0.20565 0.0705136 0.113291 0.265202 -0.0906347 0 0 0 -3.27294 2.43212 3.30729 0.01 
199 1 20 7.33937e-05 0.207979 0.0791737 0.126651 0.296062 -0.100107 0 0 0 -3.27294 2.43212 3.30729 0.01 
200 1 20 0.000834127 0.210308 0.0878338 0.140011 0.326922 -0.10958 -0.370845 -1.45226 -1.64045 -3.27294 2.43212 3.30729 0.01 
201 1 21 0.0182731 0.0059744 0.00973039 -0.000326225 0.0434253 0.0392985 -0.485589 0.350973 2.73269 -3.71562 -0.0300966 -1.65649 0.01 
202 1 21 0.0175224 0.00888152 0.0182148 0.00423405 0.0761936 0.0284741 0.0831386 -0.264193 0.317926 -3.71562 -0.0300966 -1.65649 0.01 
203 1 21 0.0167717 0.0117886 0.0266992 0.00879433 0.108962 0.0176498 0.0603352 -0.271109 0.337109 -3.71562 -0.0300966 -1.65649 0.01 
204 1 21 0.016021 0.0146958 0.0351836 0.0133546 0.14173 0.00682543 0.0333016 -0.279649 0.353956 -3.71562 -0.0300966 -1.65649 0.01 
205 1 21 0.0152703 0.0176029 0.043668 0.0179149 0.174499 -0.00399892 0.00328315 -0.290236 0.367462 -3.71562 -0.0300966 -1.65649 0.01 
206 1 21 0.0145196 0.02051 0.0521524 0.0224752 0.207267 -0.0148233 -0.028107 -0.303032 0.377155 -3.71562 -0.0300966 -1.65649 0.01 
207 1 21 0.0137688 0.0234171 0.0606368 0.0270354 0.240035 -0.0256476 1.14904 2.33514 -1.95412 -3.71562 -0.0300966 -1.65649 0.01 
208 1 21 0.0130181 0.0263243 0.0691212 0.0315957 0.272804 -0.036472 -0.0889148 -0.334522 0.386181 -3.71562 -0.0300966 -1.65649 0.01 
209 1 21 0.0122674 0.0292314 0.0776056 0.036156 0.305572 -0.0472963 -0.319899 -0.419424 0.321654 -3.71562 -0.0300966 -1.65649 0.01 
210 1 21 0.0115167 0.0321385 0.08609 0.0407163 0.33834 -0.0581207 -0.141183 -0.371258 0.386568 -3.71562 -0.0300966 -1.65649 0.01 
211 1 22 0.00689248 0.221908 0.10279 0.106252 0.246534 -0.160997 -0.173937 2.13633 1.08945 3.60436 -3.18416 2.39795 0.01 
212 1 22 0.0051216 0.21742 0.110388 0.0928245 0.214905 -0.182814 0 0 0 3.60436 -3.18416 2.39795 0.01 
213 1 22 0.00335072 0.212931 0.117985 0.0793969 0.183275 -0.204631 0 0 0 3.60436 -3.18416 2.39795 0.01 
214 1 22 0.00157984 0.208443 0.125582 0.0659692 0.151645 -0.226448 0 0 0 3.60436 -3.18416 2.39795 0.01 
215 1 22 -0.000191039 0.203954 0.133179 0.0525415 0.120016 -0.248265 0 0 0 3.60436 -3.18416 2.39795 0.01 
216 1 22 -0.00196192 0.199466 0.140777 0.0391139 0.0883862 -0.270081 0 0 0 3.60436 -3.18416 2.39795 0.01 
217 1 22 -0.0037328 0.194977 0.148374 0.0256862 0.0567566 -0.291898 0 0 0 3.60436 -3.18416 2.39795 0.01 
218 1 22 -0.00550368 0.190489 0.155971 0.0122586 0.025127 -0.313715 0 0 0 3.60436 -3.18416 2.39795 0.01 
219 1 22 -0.00727456 0.186 0.163568 -0.00116909 -0.00650256 -0.335532 0 0 0 3.60436 -3.18416 2.39795 0.01 
220 1 22 -0.00904544 0.181512 0.171165 -0.0145967 -0.0381322 -0.357349 0 0 0 3.60436 -3.18416 2.39795 0.01 
221 1 23 0.210266 0.0517669 0.108386 0.269063 -0.0499007 0.00430724 0.134145 0.459495 3.98558 -4.21634 -4.84318 -1.71089 0.01 
222 1 23 0.209909 0.0541051 0.117069 0.231007 -0.0126764 -0.00728159 0 0 0 -4.21634 -4.84318 -1.71089 0.01 
223 1 23 0.209552 0.0564433 0.125753 0.192951 0.0245479 -0.0188704 0 0 0 -4.21634 -4.84318 -1.71089 0.01 
224 1 23 0.209194 0.0587815 0.134436 0.154895 0.0617722 -0.0304592 0 0 0 -4.21634 -4.84318 -1.71089 0.01 
225 1 23 0.208837 0.0611197 0.14312 0.116839 0.0989965 -0.0420481 0 0 0 -4.21634 -4.84318 -1.71089 0.01 
226 1 23 0.20848 0.0634579 0.151804 0.0787834 0.136221 -0.0536369 0 0 0 -4.21634 -4.84318 -1.71089 0.01 
227 1 23 0.208123 0.0657961 0.160487 0.0407275 0.173445 -0.0652257 0 0 0 -4.21634 -4.84318 -1.71089 0.01 
228 1 23 0.207766 0.0681343 0.169171 0.00267152 0.210669 -0.0768145 0 0 0 -4.21634 -4.84318 -1.71089 0.01 
229 1 23 0.207408 0.0704725 0.177855 -0.0353844 0.247894 -0.0884033 0 0 0 -4.21634 -4.84318 -1.71089 0.01 
230 1 23 0.207051 0.0728107 0.186538 -0.0734403 0.285118 -0.0999922 0 0 0 -4.21634 -4.84318 -1.71089 0.01 
231 1 24 0.158823 0.0219904 0.00989369 0.0137283 -0.0537468 0.00217454 0.104653 -0.00387906 0.873329 4.96968 0.98568 20.6946 0.01 
232 1 24 0.161738 0.0201818 0.018214 0.0593579 -0.0347571 -0.00968759 0 0 0 4.96968 0.98568 20.6946 0.01 
233 1 24 0.164654 0.0183732 0.0265343 0.104988 -0.0157674 -0.0215497 0 0 0 4.96968 0.98568 20.6946 0.01 
234 1 24 0.16757 0.0165646 0.0348546 0.150617 0.00322227 -0.0334119 0 0 0 4.96968 0.98568 20.6946 0.01 
235 1 24 0.170485 0.014756 0.043175 0.196247 0.022212 -0.045274 0 0 0 4.96968 0.98568 20.6946 0.01 
236 1 24 0.173401 0.0129474 0.0514953 0.241876 0.0412017 -0.0571361 0 0 0 4.96968 0.98568 20.6946 0.01 
237 1 24 0.176317 0.0111388 0.0598156 0.287506 0.0601914 -0.0689982 0 0 0 4.96968 0.98568 20.6946 0.01 
238 1 24 0.179233 0.00933018 0.0681359 0.333136 0.0791811 -0.0808604 0 0 0 4.96968 0.98568 20.6946 0.01 
239 1 24 0.182148 0.00752157 0.0764562 0.378765 0.0981708 -0.0927225 0 0 0 4.96968 0.98568 20.6946 0.01 
240 1 24 0.185064 0.00571296 0.0847766 0.424395 0.117161 -0.104585 -0.409085 0.525394 -0.322382 4.96968 0.98568 20.6946 0.01 
241 1 25 0.135208 -0.178679 0.110036 0.0405556 -0.182418 -0.0383639 -0.249155 0.208851 1.44149 -4.7913 0.236218 3.72977 0.01 
242 1 25 0.135735 -0.177214 0.118901 0.0371887 -0.137978 -0.0455036 0.499307 -0.111432 -0.0504851 -4.7913 0.236218 3.72977 0.01 
243 1 25 0.136263 -0.17575 0.127765 0.0338217 -0.0935381 -0.0526434 0 0 0 -4.7913 0.236218 3.72977 0.01 
244 1 25 0.13679 -0.174286 0.136629 0.0304548 -0.0490983 -0.0597831 0 0 0 -4.7913 0.236218 3.72977 0.01 
245 1 25 0.137318 -0.172822 0.145494 0.0270878 -0.00465846 -0.0669229 0 0 0 -4.7913 0.236218 3.72977 0.01 
246 1 25 0.137845 -0.171358 0.154358 0.0237208 0.0397814 -0.0740626 0 0 0 -4.7913 0.236218 3.72977 0.01 
247 1 25 0.138373 -0.169894 0.163223 0.0203539 0.0842212 -0.0812023 0 0 0 -4.7913 0.236218 3.72977 0.01 
248 1 25 0.138901 -0.16843 0.172087 0.0169869 0.128661 -0.0883421 0 0 0 -4.7913 0.236218 3.72977 0.01 
249 1 25 0.139428 -0.166965 0.180951 0.01362 0.173101 -0.0954818 0 0 0 -4.7913 0.236218 3.72977 0.01 
250 1 25 0.139956 -0.165501 0.189816 0.010253 0.217541 -0.102622 0 0 0 -4.7913 0.236218 3.72977 0.01 
251 1 26 -0.00678819 -0.171282 0.0099138 -0.00176936 -0.0258419 -0.000839564 0.0588574 -0.0898465 0.684693 2.62092 -0.165559 2.83595 0.01 
252 1 26 -0.00554291 -0.173162 0.0186268 0.00211915 -0.0451463 -0.0055602 0 0 0 2.62092 -0.165559 2.83595 0.01 
253 1 26 -0.00429763 -0.175042 0.0273397 0.00600765 -0.0644507 -0.0102808 0 0 0 2.62092 -0.165559 2.83595 0.01 
254 1 26 -0.00305235 -0.176922 0.0360527 0.00989616 -0.0837551 -0.0150015 0 0 0 2.62092 -0.165559 2.83595 0.01 
255 1 26 -0.00180708 -0.178802 0.0447656 0.0137847 -0.10306 -0.0197221 0 0 0 2.62092 -0.165559 2.83595 0.01 
256 1 26 -0.000561798 -0.180681 0.0534786 0.0176732 -0.122364 -0.0244428 0 0 0 2.62092 -0.165559 2.83595 0.01 
257 1 26 0.00068348 -0.182561 0.0621915 0.0215617 -0.141668 -0.0291634 0 0 0 2.62092 -0.165559 2.83595 0.01 
258 1 26 0.00192876 -0.184441 0.0709045 0.0254502 -0.160973 -0.033884 0 0 0 2.62092 -0.165559 2.83595 0.01 
259 1 26 0.00317404 -0.186321 0.0796175 0.0293387 -0.180277 -0.0386047 0 0 0 2.62092 -0.165559 2.83595 0.01 
260 1 26 0.00441931 -0.188201 0.0883304 0.0332272 -0.199582 -0.0433253 0 0 0 2.62092 -0.165559 2.83595 0.01 
261 1 27 -0.120579 0.185008 0.114362 0.0780086 0.414161 -0.118753 0 0 0 5.93604 -6.59397 5.80649 0.01 
262 1 27 -0.123394 0.179507 0.120905 0.0668012 0.358971 -0.16997 0 0 0 5.93604 -6.59397 5.80649 0.01 
263 1 27 -0.12621 0.174007 0.127448 0.0555937 0.303781 -0.221188 0 0 0 5.93604 -6.59397 5.80649 0.01 
264 1 27 -0.129025 0.168506 0.133992 0.0443862 0.248591 -0.272406 -0.130689 0.0346897 0.106816 5.93604 -6.59397 5.80649 0.01 
265 1 27 -0.131841 0.163005 0.140535 0.0331787 0.193401 -0.323623 0 0 0 5.93604 -6.59397 5.80649 0.01 
266 1 27 -0.134656 0.157505 0.147079 0.0219713 0.13821 -0.374841 0 0 0 5.93604 -6.59397 5.80649 0.01 
267 1 27 -0.137472 0.152004 0.153622 0.0107638 0.0830204 -0.426058 0 0 0 5.93604 -6.59397 5.80649 0.01 
268 1 27 -0.140287 0.146504 0.160165 -0.000443699 0.0278302 -0.477276 0 0 0 5.93604 -6.59397 5.80649 0.01 