ITEM: TIMESTEP
24000
ITEM: NUMBER OF ATOMS
6300
ITEM: BOX BOUNDS mm mm mm
-0.347006 0.330051
-0.316411 0.358736
0 0.5
ITEM: ATOMS id type mol x y z vx vy vz fx fy fz omegax omegay omegaz radius 
1 1 1 -0.121445 -0.116514 0.0932497 -0.0728304 0.0676649 -0.285355 0.00251303 0.177263 0.290986 3.86018 0.332689 -2.1723 0.01 
2 1 1 -0.121428 -0.118538 0.102019 -0.0743095 0.0337774 -0.293174 0 0 0 3.86018 0.332689 -2.1723 0.01 
3 1 1 -0.121412 -0.120562 0.110789 -0.0757886 -0.000110025 -0.300992 0 0 0 3.86018 0.332689 -2.1723 0.01 
4 1 1 -0.121395 -0.122586 0.119558 -0.0772677 -0.0339975 -0.30881 0.144089 -0.829857 -0.219671 3.86018 0.332689 -2.1723 0.01 
5 1 1 -0.121379 -0.124609 0.128328 -0.0787468 -0.0678849 -0.316628 1.07062e-05 -0.219174 -0.0537505 3.86018 0.332689 -2.1723 0.01 
6 1 1 -0.121363 -0.126633 0.137097 -0.0802259 -0.101772 -0.324447 0 0 0 3.86018 0.332689 -2.1723 0.01 
7 1 1 -0.121346 -0.128657 0.145866 -0.081705 -0.13566 -0.332265 0 0 0 3.86018 0.332689 -2.1723 0.01 
8 1 1 -0.12133 -0.130681 0.154636 -0.0831841 -0.169547 -0.340083 0 0 0 3.86018 0.332689 -2.1723 0.01 
9 1 1 -0.121313 -0.132705 0.163405 -0.0846632 -0.203435 -0.347901 0 0 0 3.86018 0.332689 -2.1723 0.01 
10 1 1 -0.121297 -0.134729 0.172175 -0.0861423 -0.237322 -0.35572 0 0 0 3.86018 0.332689 -2.1723 0.01 
11 1 2 -0.022108 -0.117649 0.0397784 0.0350847 -0.167145 -0.0607736 -0.423956 0.629762 1.19592 -0.210657 -1.21854 0.917636 0.01 
12 1 2 -0.024155 -0.117422 0.0485395 0.0242004 -0.167178 -0.0633158 0 0 0 -0.210657 -1.21854 0.917636 0.01 
13 1 2 -0.026202 -0.117195 0.0573007 0.0133161 -0.16721 -0.0658581 0 0 0 -0.210657 -1.21854 0.917636 0.01 
14 1 2 -0.028249 -0.116968 0.0660619 0.00243177 -0.167243 -0.0684003 0 0 0 -0.210657 -1.21854 0.917636 0.01 
15 1 2 -0.030296 -0.116741 0.0748231 -0.00845254 -0.167276 -0.0709425 0 0 0 -0.210657 -1.21854 0.917636 0.01 
16 1 2 -0.032343 -0.116513 0.0835842 -0.0193369 -0.167309 -0.0734847 0.241355 -1.23851 -0.0492869 -0.210657 -1.21854 0.917636 0.01 
17 1 2 -0.03439 -0.116286 0.0923454 -0.0302212 -0.167342 -0.0760269 0.334572 0.190417 0.32686 -0.210657 -1.21854 0.917636 0.01 
18 1 2 -0.036437 -0.116059 0.101107 -0.0411055 -0.167374 -0.0785691 0 0 0 -0.210657 -1.21854 0.917636 0.01 
19 1 2 -0.038484 -0.115832 0.109868 -0.0519898 -0.167407 -0.0811113 0 0 0 -0.210657 -1.21854 0.917636 0.01 
20 1 2 -0.040531 -0.115605 0.118629 -0.0628741 -0.16744 -0.0836535 -0.196561 0.356253 -0.361873 -0.210657 -1.21854 0.917636 0.01 
21 1 3 -0.0279096 -0.0338234 0.00998082 0.0430287 -0.0409012 -0.00918256 -0.0841881 0.0412379 0.187491 0.891946 -2.01578 1.219 0.01 
22 1 3 -0.030668 -0.0384757 0.0171743 0.0341994 -0.0506799 -0.0188925 0 0 0 0.891946 -2.01578 1.219 0.01 
23 1 3 -0.0334264 -0.0431281 0.0243679 0.0253701 -0.0604586 -0.0286025 0 0 0 0.891946 -2.01578 1.219 0.01 
24 1 3 -0.0361848 -0.0477805 0.0315614 0.0165407 -0.0702373 -0.0383124 0 0 0 0.891946 -2.01578 1.219 0.01 
25 1 3 -0.0389431 -0.0524329 0.0387549 0.00771143 -0.080016 -0.0480224 0 0 0 0.891946 -2.01578 1.219 0.01 
26 1 3 -0.0417015 -0.0570852 0.0459484 -0.00111789 -0.0897947 -0.0577323 0.3663 -0.32098 0.211308 0.891946 -2.01578 1.219 0.01 
27 1 3 -0.0444599 -0.0617376 0.053142 -0.00994721 -0.0995734 -0.0674423 0 0 0 0.891946 -2.01578 1.219 0.01 
28 1 3 -0.0472183 -0.06639 0.0603355 -0.0187765 -0.109352 -0.0771522 0 0 0 0.891946 -2.01578 1.219 0.01 
29 1 3 -0.0499766 -0.0710424 0.067529 -0.0276058 -0.119131 -0.0868622 -0.14947 0.224345 0.291636 0.891946 -2.01578 1.219 0.01 
30 1 3 -0.052735 -0.0756947 0.0747225 -0.0364352 -0.12891 -0.0965721 -0.184922 -0.0494736 -0.212691 0.891946 -2.01578 1.219 0.01 
31 1 4 -0.0887211 0.113147 0.00988644 -0.0180126 0.0406321 0.00444451 -0.0521238 0.219419 0.923294 -3.50511 -1.52989 1.44271 0.01 
32 1 4 -0.0894365 0.116121 0.0183507 -0.0352527 0.0692681 -0.00707445 0 0 0 -3.50511 -1.52989 1.44271 0.01 
33 1 4 -0.0901519 0.119095 0.0268149 -0.0524928 0.097904 -0.0185934 0 0 0 -3.50511 -1.52989 1.44271 0.01 
34 1 4 -0.0908673 0.122069 0.0352791 -0.0697329 0.12654 -0.0301124 0 0 0 -3.50511 -1.52989 1.44271 0.01 
35 1 4 -0.0915827 0.125043 0.0437433 -0.0869729 0.155176 -0.0416313 0 0 0 -3.50511 -1.52989 1.44271 0.01 
36 1 4 -0.0922981 0.128017 0.0522075 -0.104213 0.183812 -0.0531503 0 0 0 -3.50511 -1.52989 1.44271 0.01 
37 1 4 -0.0930135 0.130991 0.0606718 -0.121453 0.212448 -0.0646692 0 0 0 -3.50511 -1.52989 1.44271 0.01 
38 1 4 -0.0937289 0.133966 0.069136 -0.138693 0.241083 -0.0761882 0 0 0 -3.50511 -1.52989 1.44271 0.01 
39 1 4 -0.0944443 0.13694 0.0776002 -0.155933 0.269719 -0.0877071 0 0 0 -3.50511 -1.52989 1.44271 0.01 
40 1 4 -0.0951597 0.139914 0.0860644 -0.173173 0.298355 -0.0992261 0.0472139 -0.0140453 0.00105974 -3.50511 -1.52989 1.44271 0.01 
41 1 5 0.0791667 -0.134855 0.00986121 0.00828584 -0.00311802 -0.00643279 -0.845081 0.0440014 1.77271 0.400126 0.620115 1.22235 0.01 
42 1 5 0.0798679 -0.133477 0.0187274 0.0120997 -0.00580844 -0.00631634 0 0 0 0.400126 0.620115 1.22235 0.01 
43 1 5 0.0805692 -0.132099 0.0275936 0.0159136 -0.00849886 -0.00619989 1.09786 0.0672754 -0.353659 0.400126 0.620115 1.22235 0.01 
44 1 5 0.0812704 -0.130722 0.0364599 0.0197275 -0.0111893 -0.00608343 -0.0381795 -0.0250255 -0.00817744 0.400126 0.620115 1.22235 0.01 
45 1 5 0.0819717 -0.129344 0.0453261 0.0235413 -0.0138797 -0.00596698 0 0 0 0.400126 0.620115 1.22235 0.01 
46 1 5 0.082673 -0.127966 0.0541923 0.0273552 -0.0165701 -0.00585053 0 0 0 0.400126 0.620115 1.22235 0.01 
47 1 5 0.0833742 -0.126588 0.0630585 0.0311691 -0.0192606 -0.00573408 0 0 0 0.400126 0.620115 1.22235 0.01 
48 1 5 0.0840755 -0.12521 0.0719247 0.034983 -0.021951 -0.00561763 0 0 0 0.400126 0.620115 1.22235 0.01 
49 1 5 0.0847767 -0.123832 0.0807909 0.0387968 -0.0246414 -0.00550118 -0.153023 -0.044422 0.00509213 0.400126 0.620115 1.22235 0.01 
50 1 5 0.085478 -0.122455 0.0896572 0.0426107 -0.0273318 -0.00538473 -0.216089 -0.295611 -0.46196 0.400126 0.620115 1.22235 0.01 
51 1 6 0.17881 -0.0356955 0.0100174 0.145299 0.0951281 0.029756 -0.204846 0.0613292 0.0160582 6.97745 -0.584823 -4.96604 0.01 
52 1 6 0.174189 -0.0392553 0.0168709 0.123613 0.070259 0.00221488 0 0 0 6.97745 -0.584823 -4.96604 0.01 
53 1 6 0.169567 -0.0428151 0.0237243 0.101927 0.0453898 -0.0253262 0 0 0 6.97745 -0.584823 -4.96604 0.01 
54 1 6 0.164946 -0.0463749 0.0305777 0.0802405 0.0205207 -0.0528674 0 0 0 6.97745 -0.584823 -4.96604 0.01 
55 1 6 0.160325 -0.0499347 0.0374312 0.0585543 -0.00434843 -0.0804085 0.539863 0.0376775 1.48974 6.97745 -0.584823 -4.96604 0.01 
56 1 6 0.155703 -0.0534945 0.0442846 0.0368681 -0.0292176 -0.10795 0 0 0 6.97745 -0.584823 -4.96604 0.01 
57 1 6 0.151082 -0.0570543 0.0511381 0.0151819 -0.0540867 -0.135491 0 0 0 6.97745 -0.584823 -4.96604 0.01 
58 1 6 0.14646 -0.0606141 0.0579915 -0.00650426 -0.0789558 -0.163032 0 0 0 6.97745 -0.584823 -4.96604 0.01 
59 1 6 0.141839 -0.0641739 0.064845 -0.0281904 -0.103825 -0.190573 0 0 0 6.97745 -0.584823 -4.96604 0.01 
60 1 6 0.137217 -0.0677337 0.0716984 -0.0498766 -0.128694 -0.218114 -0.0413952 -0.0708098 -0.125954 6.97745 -0.584823 -4.96604 0.01 
61 1 7 -0.038701 0.218535 0.00990108 0.0179159 0.0442784 -0.00995655 0.045145 0.106046 1.01438 -4.82872 1.84773 -0.504508 0.01 
62 1 7 -0.0380071 0.219319 0.01884 0.0348279 0.0870919 -0.0150224 0 0 0 -4.82872 1.84773 -0.504508 0.01 
63 1 7 -0.0373132 0.220102 0.0277789 0.0517399 0.129905 -0.0200883 0 0 0 -4.82872 1.84773 -0.504508 0.01 
64 1 7 -0.0366193 0.220886 0.0367179 0.068652 0.172719 -0.0251542 0 0 0 -4.82872 1.84773 -0.504508 0.01 
65 1 7 -0.0359254 0.221669 0.0456568 0.085564 0.215532 -0.03022 0 0 0 -4.82872 1.84773 -0.504508 0.01 
66 1 7 -0.0352315 0.222453 0.0545957 0.102476 0.258346 -0.0352859 0 0 0 -4.82872 1.84773 -0.504508 0.01 
67 1 7 -0.0345376 0.223236 0.0635347 0.119388 0.301159 -0.0403518 0 0 0 -4.82872 1.84773 -0.504508 0.01 
68 1 7 -0.0338437 0.22402 0.0724736 0.1363 0.343973 -0.0454176 0 0 0 -4.82872 1.84773 -0.504508 0.01 
69 1 7 -0.0331498 0.224804 0.0814125 0.153212 0.386786 -0.0504835 0.261379 0.35141 -0.427153 -4.82872 1.84773 -0.504508 0.01 
70 1 7 -0.0324559 0.225587 0.0903515 0.170124 0.4296 -0.0555494 0 0 0 -4.82872 1.84773 -0.504508 0.01 
71 1 8 0.132443 -0.143422 0.106304 0.0844207 -0.144707 -0.0513491 0.424077 0.0948179 0.736496 -1.24539 4.29692 -2.27177 0.01 
72 1 8 0.135547 -0.14306 0.114744 0.12151 -0.141248 -0.0651387 0 0 0 -1.24539 4.29692 -2.27177 0.01 
73 1 8 0.138651 -0.142697 0.123184 0.158599 -0.137789 -0.0789283 0 0 0 -1.24539 4.29692 -2.27177 0.01 
74 1 8 0.141755 -0.142335 0.131624 0.195688 -0.13433 -0.0927179 0 0 0 -1.24539 4.29692 -2.27177 0.01 
75 1 8 0.144859 -0.141972 0.140064 0.232777 -0.130871 -0.106508 0 0 0 -1.24539 4.29692 -2.27177 0.01 
76 1 8 0.147964 -0.14161 0.148504 0.269866 -0.127412 -0.120297 0 0 0 -1.24539 4.29692 -2.27177 0.01 
77 1 8 0.151068 -0.141248 0.156944 0.306955 -0.123953 -0.134087 0 0 0 -1.24539 4.29692 -2.27177 0.01 
78 1 8 0.154172 -0.140885 0.165384 0.344044 -0.120493 -0.147876 0 0 0 -1.24539 4.29692 -2.27177 0.01 
79 1 8 0.157276 -0.140523 0.173824 0.381133 -0.117034 -0.161666 0 0 0 -1.24539 4.29692 -2.27177 0.01 
80 1 8 0.16038 -0.140161 0.182264 0.418222 -0.113575 -0.175455 0 0 0 -1.24539 4.29692 -2.27177 0.01 
81 1 9 -0.127686 0.0397994 0.0906397 -0.146303 0.164615 -0.362016 0.0198119 -0.0559348 0.113369 7.44828 8.94118 6.05901 0.01 
82 1 9 -0.1217 0.037951 0.097101 -0.0773321 0.152759 -0.429307 0 0 0 7.44828 8.94118 6.05901 0.01 
83 1 9 -0.115713 0.0361027 0.103562 -0.00836081 0.140904 -0.496597 0 0 0 7.44828 8.94118 6.05901 0.01 
84 1 9 -0.109727 0.0342543 0.110024 0.0606105 0.129048 -0.563888 0 0 0 7.44828 8.94118 6.05901 0.01 
85 1 9 -0.103741 0.0324059 0.116485 0.129582 0.117192 -0.631179 0 0 0 7.44828 8.94118 6.05901 0.01 
86 1 9 -0.0977548 0.0305576 0.122946 0.198553 0.105337 -0.698469 0 0 0 7.44828 8.94118 6.05901 0.01 
87 1 9 -0.0917686 0.0287092 0.129408 0.267524 0.0934812 -0.76576 0 0 0 7.44828 8.94118 6.05901 0.01 
88 1 9 -0.0857824 0.0268609 0.135869 0.336496 0.0816256 -0.833051 0 0 0 7.44828 8.94118 6.05901 0.01 
89 1 9 -0.0797962 0.0250125 0.142331 0.405467 0.0697699 -0.900341 0 0 0 7.44828 8.94118 6.05901 0.01 
90 1 9 -0.07381 0.0231642 0.148792 0.474438 0.0579143 -0.967632 0 0 0 7.44828 8.94118 6.05901 0.01 
91 1 10 0.0600981 0.206745 0.108352 -0.0495042 0.0980826 -0.0519128 -0.180318 0.533643 3.82947 -8.31988 0.447822 13.0309 0.01 
92 1 10 0.0569847 0.208398 0.116634 -0.0673268 0.12641 -0.0642654 -0.653517 -0.165621 -0.899702 -8.31988 0.447822 13.0309 0.01 
93 1 10 0.0538713 0.21005 0.124915 -0.0851493 0.154737 -0.0766181 0 0 0 -8.31988 0.447822 13.0309 0.01 
94 1 10 0.0507579 0.211702 0.133196 -0.102972 0.183064 -0.0889708 0 0 0 -8.31988 0.447822 13.0309 0.01 
95 1 10 0.0476445 0.213355 0.141477 -0.120794 0.211391 -0.101323 0 0 0 -8.31988 0.447822 13.0309 0.01 
96 1 10 0.0445311 0.215007 0.149758 -0.138617 0.239718 -0.113676 0 0 0 -8.31988 0.447822 13.0309 0.01 
97 1 10 0.0414176 0.216659 0.158039 -0.15644 0.268045 -0.126029 0 0 0 -8.31988 0.447822 13.0309 0.01 
98 1 10 0.0383042 0.218311 0.16632 -0.174262 0.296373 -0.138382 0.089801 0.0646487 -0.0314453 -8.31988 0.447822 13.0309 0.01 
99 1 10 0.0351908 0.219964 0.174601 -0.192085 0.3247 -0.150734 0 0 0 -8.31988 0.447822 13.0309 0.01 
100 1 10 0.0320774 0.221616 0.182882 -0.209907 0.353027 -0.163087 0.273161 -0.00983359 0.0124077 -8.31988 0.447822 13.0309 0.01 
101 1 11 -0.230449 -0.0903463 0.0303597 -0.401293 0.183218 -0.528837 0.454622 0.827753 0.767547 5.16949 1.49552 -4.03634 0.01 
102 1 11 -0.228443 -0.0922207 0.0389307 -0.39604 0.130812 -0.541527 -0.67229 -0.948838 0.0162435 5.16949 1.49552 -4.03634 0.01 
103 1 11 -0.226437 -0.094095 0.0475016 -0.390788 0.0784065 -0.554217 0 0 0 5.16949 1.49552 -4.03634 0.01 
104 1 11 -0.22443 -0.0959694 0.0560726 -0.385535 0.0260006 -0.566907 0 0 0 5.16949 1.49552 -4.03634 0.01 
105 1 11 -0.222424 -0.0978438 0.0646435 -0.380283 -0.0264053 -0.579597 0 0 0 5.16949 1.49552 -4.03634 0.01 
106 1 11 -0.220418 -0.0997182 0.0732145 -0.375031 -0.0788111 -0.592287 0 0 0 5.16949 1.49552 -4.03634 0.01 
107 1 11 -0.218411 -0.101593 0.0817854 -0.369778 -0.131217 -0.604977 0 0 0 5.16949 1.49552 -4.03634 0.01 
108 1 11 -0.216405 -0.103467 0.0903564 -0.364526 -0.183623 -0.617668 0 0 0 5.16949 1.49552 -4.03634 0.01 
109 1 11 -0.214398 -0.105341 0.0989273 -0.359274 -0.236029 -0.630358 0 0 0 5.16949 1.49552 -4.03634 0.01 
110 1 11 -0.212392 -0.107216 0.107498 -0.354021 -0.288435 -0.643048 0 0 0 5.16949 1.49552 -4.03634 0.01 
111 1 12 0.105098 0.0524325 0.0798326 0.17602 -0.146622 -0.549368 0 0 0 -5.93027 -5.82168 -8.05186 0.01 
112 1 12 0.106505 0.0550256 0.0883354 0.1474 -0.107525 -0.556557 0 0 0 -5.93027 -5.82168 -8.05186 0.01 
113 1 12 0.107911 0.0576188 0.0968381 0.118779 -0.068428 -0.563746 -0.284666 -1.62815 2.39053 -5.93027 -5.82168 -8.05186 0.01 
114 1 12 0.109318 0.060212 0.105341 0.0901591 -0.0293309 -0.570935 0 0 0 -5.93027 -5.82168 -8.05186 0.01 
115 1 12 0.110725 0.0628052 0.113844 0.0615388 0.00976625 -0.578124 0 0 0 -5.93027 -5.82168 -8.05186 0.01 
116 1 12 0.112131 0.0653984 0.122346 0.0329185 0.0488634 -0.585313 0 0 0 -5.93027 -5.82168 -8.05186 0.01 
117 1 12 0.113538 0.0679915 0.130849 0.00429815 0.0879605 -0.592502 0 0 0 -5.93027 -5.82168 -8.05186 0.01 
118 1 12 0.114945 0.0705847 0.139352 -0.0243222 0.127058 -0.599691 0 0 0 -5.93027 -5.82168 -8.05186 0.01 
119 1 12 0.116352 0.0731779 0.147855 -0.0529425 0.166155 -0.60688 0 0 0 -5.93027 -5.82168 -8.05186 0.01 
120 1 12 0.117758 0.0757711 0.156357 -0.0815629 0.205252 -0.614069 0 0 0 -5.93027 -5.82168 -8.05186 0.01 
121 1 13 -0.00811364 0.242327 0.0890384 0.041488 0.506214 -0.22199 0 0 0 -0.508477 -14.0636 15.5132 0.01 
122 1 13 -0.011924 0.238127 0.096027 0.00835659 0.450656 -0.273442 -0.278009 1.33574 2.04474 -0.508477 -14.0636 15.5132 0.01 
123 1 13 -0.0157344 0.233927 0.103016 -0.0247749 0.395098 -0.324894 0 0 0 -0.508477 -14.0636 15.5132 0.01 
124 1 13 -0.0195448 0.229727 0.110004 -0.0579063 0.339541 -0.376347 0 0 0 -0.508477 -14.0636 15.5132 0.01 
125 1 13 -0.0233552 0.225527 0.116993 -0.0910377 0.283983 -0.427799 0 0 0 -0.508477 -14.0636 15.5132 0.01 
126 1 13 -0.0271656 0.221327 0.123982 -0.124169 0.228426 -0.479251 0 0 0 -0.508477 -14.0636 15.5132 0.01 
127 1 13 -0.0309759 0.217127 0.13097 -0.157301 0.172868 -0.530703 0 0 0 -0.508477 -14.0636 15.5132 0.01 
128 1 13 -0.0347863 0.212927 0.137959 -0.190432 0.11731 -0.582155 0 0 0 -0.508477 -14.0636 15.5132 0.01 
129 1 13 -0.0385967 0.208727 0.144948 -0.223564 0.0617528 -0.633608 0 0 0 -0.508477 -14.0636 15.5132 0.01 
130 1 13 -0.0424071 0.204528 0.151936 -0.256695 0.00619515 -0.68506 0 0 0 -0.508477 -14.0636 15.5132 0.01 
131 1 14 -0.0468351 0.123984 0.00990598 -0.0307115 0.0684995 -0.00623384 0.213156 0.221629 0.879991 -7.02943 -2.77298 -13.5555 0.01 
132 1 14 -0.0447783 0.126923 0.0181603 -0.0137657 0.098642 -0.0211875 0 0 0 -7.02943 -2.77298 -13.5555 0.01 
133 1 14 -0.0427215 0.129861 0.0264146 0.00318001 0.128785 -0.0361411 0 0 0 -7.02943 -2.77298 -13.5555 0.01 
134 1 14 -0.0406647 0.1328 0.034669 0.0201258 0.158927 -0.0510948 0 0 0 -7.02943 -2.77298 -13.5555 0.01 
135 1 14 -0.0386079 0.135739 0.0429233 0.0370715 0.18907 -0.0660484 0 0 0 -7.02943 -2.77298 -13.5555 0.01 
136 1 14 -0.0365512 0.138677 0.0511776 0.0540173 0.219212 -0.0810021 0 0 0 -7.02943 -2.77298 -13.5555 0.01 
137 1 14 -0.0344944 0.141616 0.0594319 0.070963 0.249355 -0.0959557 0 0 0 -7.02943 -2.77298 -13.5555 0.01 
138 1 14 -0.0324376 0.144555 0.0676863 0.0879088 0.279497 -0.110909 0 0 0 -7.02943 -2.77298 -13.5555 0.01 
139 1 14 -0.0303808 0.147493 0.0759406 0.104855 0.30964 -0.125863 0 0 0 -7.02943 -2.77298 -13.5555 0.01 
140 1 14 -0.028324 0.150432 0.0841949 0.1218 0.339782 -0.140817 -0.0229974 -0.475742 -0.653684 -7.02943 -2.77298 -13.5555 0.01 
141 1 15 -0.00577085 -0.0640656 0.00993468 -0.0143222 0.0552977 0.0145937 -0.0462615 -0.0812128 0.186929 -1.22657 -3.76327 10.4291 0.01 
142 1 15 -0.00862115 -0.0650392 0.0184157 -0.0360849 0.0359743 0.00506142 0 0 0 -1.22657 -3.76327 10.4291 0.01 
143 1 15 -0.0114714 -0.0660128 0.0268968 -0.0578477 0.016651 -0.00447085 0 0 0 -1.22657 -3.76327 10.4291 0.01 
144 1 15 -0.0143217 -0.0669864 0.0353778 -0.0796105 -0.0026724 -0.0140031 0 0 0 -1.22657 -3.76327 10.4291 0.01 
145 1 15 -0.017172 -0.06796 0.0438588 -0.101373 -0.0219958 -0.0235354 0.240918 0.601847 0.37047 -1.22657 -3.76327 10.4291 0.01 
146 1 15 -0.0200223 -0.0689336 0.0523399 -0.123136 -0.0413192 -0.0330676 0 0 0 -1.22657 -3.76327 10.4291 0.01 
147 1 15 -0.0228726 -0.0699072 0.0608209 -0.144899 -0.0606425 -0.0425999 0 0 0 -1.22657 -3.76327 10.4291 0.01 
148 1 15 -0.0257229 -0.0708808 0.0693019 -0.166662 -0.0799659 -0.0521322 0 0 0 -1.22657 -3.76327 10.4291 0.01 
149 1 15 -0.0285732 -0.0718543 0.077783 -0.188424 -0.0992893 -0.0616644 0.128248 -1.33303 -0.647436 -1.22657 -3.76327 10.4291 0.01 
150 1 15 -0.0314235 -0.0728279 0.086264 -0.210187 -0.118613 -0.0711967 0.0168644 -0.0346113 -0.0319459 -1.22657 -3.76327 10.4291 0.01 
151 1 16 -0.0380278 0.17792 0.00994924 0.0157645 0.0572071 0.00422173 -0.0380498 -0.030972 0.207948 -3.91045 -0.00457988 -1.74682 0.01 
152 1 16 -0.0368289 0.18104 0.0183055 0.0211764 0.0877896 -0.00797373 0 0 0 -3.91045 -0.00457988 -1.74682 0.01 
153 1 16 -0.0356299 0.18416 0.0266618 0.0265884 0.118372 -0.0201692 0 0 0 -3.91045 -0.00457988 -1.74682 0.01 
154 1 16 -0.0344309 0.18728 0.0350181 0.0320003 0.148955 -0.0323647 0 0 0 -3.91045 -0.00457988 -1.74682 0.01 
155 1 16 -0.033232 0.1904 0.0433744 0.0374123 0.179537 -0.0445601 0 0 0 -3.91045 -0.00457988 -1.74682 0.01 
156 1 16 -0.032033 0.19352 0.0517307 0.0428242 0.210119 -0.0567556 0 0 0 -3.91045 -0.00457988 -1.74682 0.01 
157 1 16 -0.0308341 0.19664 0.060087 0.0482362 0.240702 -0.068951 0 0 0 -3.91045 -0.00457988 -1.74682 0.01 
158 1 16 -0.0296351 0.19976 0.0684433 0.0536482 0.271284 -0.0811465 0 0 0 -3.91045 -0.00457988 -1.74682 0.01 
159 1 16 -0.0284361 0.20288 0.0767995 0.0590601 0.301867 -0.0933419 -0.0656721 0.00430815 0.0265302 -3.91045 -0.00457988 -1.74682 0.01 
160 1 16 -0.0272372 0.206 0.0851558 0.0644721 0.332449 -0.105537 -0.201925 -0.191788 0.0960818 -3.91045 -0.00457988 -1.74682 0.01 
161 1 17 0.0739688 0.0914473 0.009899 0.00813906 -0.017874 -0.00637722 0.226119 -0.0453446 0.972154 2.43061 1.27587 6.59213 0.01 
162 1 17 0.0758654 0.0897196 0.0185256 0.0305342 -0.0263396 -0.0129962 0 0 0 2.43061 1.27587 6.59213 0.01 
163 1 17 0.077762 0.087992 0.0271522 0.0529294 -0.0348051 -0.0196151 0 0 0 2.43061 1.27587 6.59213 0.01 
164 1 17 0.0796585 0.0862644 0.0357788 0.0753246 -0.0432707 -0.0262341 0 0 0 2.43061 1.27587 6.59213 0.01 
165 1 17 0.0815551 0.0845367 0.0444054 0.0977198 -0.0517362 -0.0328531 0 0 0 2.43061 1.27587 6.59213 0.01 
166 1 17 0.0834517 0.0828091 0.053032 0.120115 -0.0602018 -0.039472 0 0 0 2.43061 1.27587 6.59213 0.01 
167 1 17 0.0853482 0.0810815 0.0616586 0.14251 -0.0686673 -0.046091 0 0 0 2.43061 1.27587 6.59213 0.01 
168 1 17 0.0872448 0.0793538 0.0702853 0.164905 -0.0771329 -0.05271 -0.195485 0.0778382 -0.00105437 2.43061 1.27587 6.59213 0.01 
169 1 17 0.0891413 0.0776262 0.0789119 0.187301 -0.0855984 -0.0593289 0.0283668 -0.0730163 -0.058815 2.43061 1.27587 6.59213 0.01 
170 1 17 0.0910379 0.0758986 0.0875385 0.209696 -0.0940639 -0.0659479 0.0474478 0.273232 -0.073291 2.43061 1.27587 6.59213 0.01 
171 1 18 -0.287869 -0.0446667 0.0614599 -0.503567 0.00125456 -0.299476 0 0 0 -5.25129 -3.18441 -8.22541 0.01 
172 1 18 -0.283422 -0.0428777 0.0690773 -0.513108 0.00467676 -0.29471 0 0 0 -5.25129 -3.18441 -8.22541 0.01 
173 1 18 -0.278975 -0.0410887 0.0766946 -0.522649 0.00809896 -0.289943 0 0 0 -5.25129 -3.18441 -8.22541 0.01 
174 1 18 -0.274528 -0.0392997 0.0843119 -0.532191 0.0115212 -0.285176 0 0 0 -5.25129 -3.18441 -8.22541 0.01 
175 1 18 -0.270081 -0.0375107 0.0919292 -0.541732 0.0149434 -0.28041 0 0 0 -5.25129 -3.18441 -8.22541 0.01 
176 1 18 -0.265634 -0.0357217 0.0995465 -0.551273 0.0183656 -0.275643 -0.358878 0.188396 0.668579 -5.25129 -3.18441 -8.22541 0.01 
177 1 18 -0.261187 -0.0339327 0.107164 -0.560815 0.0217878 -0.270877 0 0 0 -5.25129 -3.18441 -8.22541 0.01 
178 1 18 -0.25674 -0.0321437 0.114781 -0.570356 0.02521 -0.26611 0 0 0 -5.25129 -3.18441 -8.22541 0.01 
179 1 18 -0.252293 -0.0303547 0.122398 -0.579898 0.0286322 -0.261344 0 0 0 -5.25129 -3.18441 -8.22541 0.01 
180 1 18 -0.247846 -0.0285657 0.130016 -0.589439 0.0320544 -0.256577 0 0 0 -5.25129 -3.18441 -8.22541 0.01 
181 1 19 0.0180209 0.185775 0.102929 0.0914949 0.288129 -0.171568 -0.199318 -0.136207 0.828835 8.27641 0.989635 -0.478692 0.01 
182 1 19 0.0165487 0.181549 0.110738 0.0972 0.224205 -0.205083 0 0 0 8.27641 0.989635 -0.478692 0.01 
183 1 19 0.0150765 0.177324 0.118547 0.102905 0.160281 -0.238598 0 0 0 8.27641 0.989635 -0.478692 0.01 
184 1 19 0.0136042 0.173098 0.126355 0.10861 0.0963566 -0.272114 0 0 0 8.27641 0.989635 -0.478692 0.01 
185 1 19 0.012132 0.168873 0.134164 0.114316 0.0324324 -0.305629 0 0 0 8.27641 0.989635 -0.478692 0.01 
186 1 19 0.0106598 0.164647 0.141973 0.120021 -0.0314918 -0.339144 0.0702949 0.0236104 -0.0125434 8.27641 0.989635 -0.478692 0.01 
187 1 19 0.00918754 0.160422 0.149782 0.125726 -0.095416 -0.372659 0.816996 0.380708 -0.0497421 8.27641 0.989635 -0.478692 0.01 
188 1 19 0.00771531 0.156196 0.157591 0.131431 -0.15934 -0.406174 0 0 0 8.27641 0.989635 -0.478692 0.01 
189 1 19 0.00624308 0.151971 0.1654 0.137136 -0.223264 -0.439689 0 0 0 8.27641 0.989635 -0.478692 0.01 
190 1 19 0.00477085 0.147745 0.173208 0.142841 -0.287189 -0.473204 0 0 0 8.27641 0.989635 -0.478692 0.01 
191 1 20 -0.00660482 0.190555 0.00991705 -0.0252589 0.0137843 -0.0270828 0.548201 0.139233 1.13121 -3.50698 2.49949 0.6877 0.01 
192 1 20 -0.0050911 0.194332 0.0179447 -0.00779122 0.0429781 -0.0441121 0 0 0 -3.50698 2.49949 0.6877 0.01 
193 1 20 -0.00357737 0.198109 0.0259724 0.00967642 0.0721719 -0.0611413 0 0 0 -3.50698 2.49949 0.6877 0.01 
194 1 20 -0.00206364 0.201886 0.034 0.0271441 0.101366 -0.0781706 0 0 0 -3.50698 2.49949 0.6877 0.01 
195 1 20 -0.000549919 0.205663 0.0420277 0.0446117 0.13056 -0.0951998 -0.135938 0.0100419 0.142348 -3.50698 2.49949 0.6877 0.01 
196 1 20 0.000963806 0.20944 0.0500553 0.0620793 0.159753 -0.112229 -0.242906 0.0133459 0.258118 -3.50698 2.49949 0.6877 0.01 
197 1 20 0.00247753 0.213217 0.058083 0.079547 0.188947 -0.129258 -0.25034 -0.0206263 0.31797 -3.50698 2.49949 0.6877 0.01 
198 1 20 0.00399126 0.216994 0.0661106 0.0970146 0.218141 -0.146288 0.250256 -0.218068 0.115058 -3.50698 2.49949 0.6877 0.01 
199 1 20 0.00550498 0.220771 0.0741383 0.114482 0.247335 -0.163317 0.276446 -0.182957 0.0752392 -3.50698 2.49949 0.6877 0.01 
200 1 20 0.00701871 0.224548 0.0821659 0.13195 0.276529 -0.180346 -0.0989163 -0.529667 -1.08575 -3.50698 2.49949 0.6877 0.01 
201 1 21 0.0183099 0.00626677 0.00983465 -0.0051568 0.00114918 -0.05973 -0.568594 1.56375 3.08902 -2.6559 -1.0057 0.374273 0.01 
202 1 21 0.0172498 0.0101996 0.0178602 -0.0147 0.0220674 -0.0712413 -0.176504 -0.577321 0.608952 -2.6559 -1.0057 0.374273 0.01 
203 1 21 0.0161897 0.0141324 0.0258857 -0.0242433 0.0429856 -0.0827527 -0.0617286 -0.197118 0.212419 -2.6559 -1.0057 0.374273 0.01 
204 1 21 0.0151296 0.0180653 0.0339112 -0.0337865 0.0639038 -0.094264 0 0 0 -2.6559 -1.0057 0.374273 0.01 
205 1 21 0.0140695 0.0219981 0.0419367 -0.0433297 0.084822 -0.105775 0.262488 0.455124 -0.745956 -2.6559 -1.0057 0.374273 0.01 
206 1 21 0.0130094 0.0259309 0.0499623 -0.0528729 0.10574 -0.117287 0 0 0 -2.6559 -1.0057 0.374273 0.01 
207 1 21 0.0119493 0.0298638 0.0579878 -0.0624162 0.126658 -0.128798 0 0 0 -2.6559 -1.0057 0.374273 0.01 
208 1 21 0.0108892 0.0337966 0.0660133 -0.0719594 0.147577 -0.140309 0 0 0 -2.6559 -1.0057 0.374273 0.01 
209 1 21 0.00982914 0.0377294 0.0740388 -0.0815026 0.168495 -0.151821 0 0 0 -2.6559 -1.0057 0.374273 0.01 
210 1 21 0.00876904 0.0416623 0.0820643 -0.0910458 0.189413 -0.163332 -1.10375 -1.30806 0.146971 -2.6559 -1.0057 0.374273 0.01 
211 1 22 0.0120643 0.236412 0.0972669 0.0280537 0.315919 -0.206309 -0.109408 0.511548 1.35356 -0.0636223 -8.65612 9.29686 0.01 
212 1 22 0.00973283 0.23033 0.103478 0.0308244 0.294639 -0.226104 0 0 0 -0.0636223 -8.65612 9.29686 0.01 
213 1 22 0.00740137 0.224249 0.10969 0.033595 0.273359 -0.245899 0 0 0 -0.0636223 -8.65612 9.29686 0.01 
214 1 22 0.00506991 0.218168 0.115901 0.0363656 0.252079 -0.265693 0 0 0 -0.0636223 -8.65612 9.29686 0.01 
215 1 22 0.00273845 0.212086 0.122112 0.0391363 0.230799 -0.285488 0.273091 -0.705755 -0.63478 -0.0636223 -8.65612 9.29686 0.01 
216 1 22 0.000406984 0.206005 0.128324 0.0419069 0.209519 -0.305282 -0.464523 -0.3331 -0.531083 -0.0636223 -8.65612 9.29686 0.01 
217 1 22 -0.00192448 0.199924 0.134535 0.0446776 0.188239 -0.325077 0 0 0 -0.0636223 -8.65612 9.29686 0.01 
218 1 22 -0.00425594 0.193842 0.140747 0.0474482 0.166958 -0.344871 0 0 0 -0.0636223 -8.65612 9.29686 0.01 
219 1 22 -0.0065874 0.187761 0.146958 0.0502188 0.145678 -0.364666 0 0 0 -0.0636223 -8.65612 9.29686 0.01 
220 1 22 -0.00891887 0.18168 0.15317 0.0529895 0.124398 -0.38446 0.0306062 0.7179 1.56991 -0.0636223 -8.65612 9.29686 0.01 
221 1 23 0.222673 0.0511775 0.108249 0.322988 -0.044999 -0.0176671 0.208585 -0.0852687 0.911284 -3.77522 -10.058 -6.95909 0.01 
222 1 23 0.220464 0.0549226 0.116128 0.269794 0.000124718 -0.0540276 -0.225293 0.196553 -0.244946 -3.77522 -10.058 -6.95909 0.01 
223 1 23 0.218254 0.0586677 0.124008 0.2166 0.0452484 -0.0903881 0 0 0 -3.77522 -10.058 -6.95909 0.01 
224 1 23 0.216045 0.0624128 0.131888 0.163407 0.0903721 -0.126749 0 0 0 -3.77522 -10.058 -6.95909 0.01 
225 1 23 0.213836 0.0661579 0.139768 0.110213 0.135496 -0.163109 0 0 0 -3.77522 -10.058 -6.95909 0.01 
226 1 23 0.211626 0.069903 0.147648 0.0570197 0.18062 -0.19947 0 0 0 -3.77522 -10.058 -6.95909 0.01 
227 1 23 0.209417 0.073648 0.155528 0.00382613 0.225743 -0.23583 0 0 0 -3.77522 -10.058 -6.95909 0.01 
228 1 23 0.207208 0.0773931 0.163408 -0.0493674 0.270867 -0.272191 0 0 0 -3.77522 -10.058 -6.95909 0.01 
229 1 23 0.204998 0.0811382 0.171288 -0.102561 0.315991 -0.308551 0 0 0 -3.77522 -10.058 -6.95909 0.01 
230 1 23 0.202789 0.0848833 0.179168 -0.155755 0.361114 -0.344912 0 0 0 -3.77522 -10.058 -6.95909 0.01 
231 1 24 0.15994 0.0213819 0.00991537 0.0595164 0.0222759 0.00207689 0.276961 -0.160278 0.612468 -2.1207 6.03429 -5.16877 0.01 
232 1 24 0.164515 0.0200534 0.0175514 0.0987277 0.0148247 -0.02271 0 0 0 -2.1207 6.03429 -5.16877 0.01 
233 1 24 0.169089 0.0187249 0.0251874 0.137939 0.00737363 -0.0474969 0 0 0 -2.1207 6.03429 -5.16877 0.01 
234 1 24 0.173664 0.0173964 0.0328234 0.17715 -7.74922e-05 -0.0722837 0 0 0 -2.1207 6.03429 -5.16877 0.01 
235 1 24 0.178239 0.016068 0.0404594 0.216362 -0.00752861 -0.0970706 0 0 0 -2.1207 6.03429 -5.16877 0.01 
236 1 24 0.182813 0.0147395 0.0480954 0.255573 -0.0149797 -0.121857 0 0 0 -2.1207 6.03429 -5.16877 0.01 
237 1 24 0.187388 0.013411 0.0557314 0.294784 -0.0224309 -0.146644 0 0 0 -2.1207 6.03429 -5.16877 0.01 
238 1 24 0.191962 0.0120825 0.0633674 0.333995 -0.029882 -0.171431 0 0 0 -2.1207 6.03429 -5.16877 0.01 
239 1 24 0.196537 0.010754 0.0710034 0.373207 -0.0373331 -0.196218 0 0 0 -2.1207 6.03429 -5.16877 0.01 
240 1 24 0.201111 0.00942557 0.0786394 0.412418 -0.0447842 -0.221005 0.121559 -0.0905927 -0.00355405 -2.1207 6.03429 -5.16877 0.01 
241 1 25 0.137338 -0.187966 0.108118 0.0787037 -0.251118 -0.12884 0.557607 0.0807959 0.715673 -7.45596 0.0430339 1.97278 0.01 
242 1 25 0.137734 -0.184248 0.116305 0.0717216 -0.189298 -0.156577 0 0 0 -7.45596 0.0430339 1.97278 0.01 
243 1 25 0.13813 -0.18053 0.124491 0.0647395 -0.127478 -0.184314 0 0 0 -7.45596 0.0430339 1.97278 0.01 
244 1 25 0.138525 -0.176812 0.132678 0.0577574 -0.0656576 -0.212051 0 0 0 -7.45596 0.0430339 1.97278 0.01 
245 1 25 0.138921 -0.173094 0.140865 0.0507753 -0.00383755 -0.239788 0 0 0 -7.45596 0.0430339 1.97278 0.01 
246 1 25 0.139317 -0.169377 0.149051 0.0437931 0.0579825 -0.267524 0 0 0 -7.45596 0.0430339 1.97278 0.01 
247 1 25 0.139712 -0.165659 0.157238 0.036811 0.119803 -0.295261 0 0 0 -7.45596 0.0430339 1.97278 0.01 
248 1 25 0.140108 -0.161941 0.165424 0.0298289 0.181623 -0.322998 0 0 0 -7.45596 0.0430339 1.97278 0.01 
249 1 25 0.140504 -0.158223 0.173611 0.0228468 0.243443 -0.350735 0 0 0 -7.45596 0.0430339 1.97278 0.01 
250 1 25 0.140899 -0.154505 0.181798 0.0158647 0.305263 -0.378472 0 0 0 -7.45596 0.0430339 1.97278 0.01 
251 1 26 -0.00614745 -0.173724 0.00986739 0.0119097 -0.0597341 -0.00930941 -0.577466 0.454609 1.46988 3.94244 -1.13934 1.29351 0.01 
252 1 26 -0.00483204 -0.176962 0.0181611 0.00664874 -0.09073 -0.0205763 0 0 0 3.94244 -1.13934 1.29351 0.01 
253 1 26 -0.00351663 -0.1802 0.0264548 0.00138779 -0.121726 -0.0318431 0 0 0 3.94244 -1.13934 1.29351 0.01 
254 1 26 -0.00220121 -0.183438 0.0347484 -0.00387317 -0.152722 -0.0431099 0 0 0 3.94244 -1.13934 1.29351 0.01 
255 1 26 -0.000885803 -0.186676 0.0430421 -0.00913412 -0.183718 -0.0543768 0.545026 0.221874 -0.401605 3.94244 -1.13934 1.29351 0.01 
256 1 26 0.000429609 -0.189914 0.0513358 -0.0143951 -0.214713 -0.0656436 0.333303 -0.699047 -0.951519 3.94244 -1.13934 1.29351 0.01 
257 1 26 0.00174502 -0.193152 0.0596295 -0.019656 -0.245709 -0.0769105 0 0 0 3.94244 -1.13934 1.29351 0.01 
258 1 26 0.00306043 -0.19639 0.0679232 -0.024917 -0.276705 -0.0881773 0 0 0 3.94244 -1.13934 1.29351 0.01 
259 1 26 0.00437584 -0.199628 0.0762169 -0.0301779 -0.307701 -0.0994441 0 0 0 3.94244 -1.13934 1.29351 0.01 
260 1 26 0.00569125 -0.202866 0.0845105 -0.0354389 -0.338697 -0.110711 -0.568889 0.45783 0.38221 3.94244 -1.13934 1.29351 0.01 
261 1 27 -0.125413 0.197723 0.103163 -0.240371 0.236519 -0.428161 0.281434 0.0993299 -0.0405727 -3.32008 -15.8395 12.6396 0.01 
262 1 27 -0.127785 0.190565 0.108075 -0.227705 0.22285 -0.441964 0.155516 -0.0366209 -0.0807744 -3.32008 -15.8395 12.6396 0.01 