ITEM: TIMESTEP
15000
ITEM: NUMBER OF ATOMS
6300
ITEM: BOX BOUNDS mm mm mm
-0.3 0.300644
-0.3 0.3
0 0.5
ITEM: ATOMS id type mol x y z vx vy vz fx fy fz omegax omegay omegaz radius 
1 1 1 -0.115758 -0.123704 0.101768 -0.0220781 0.258776 -0.0431143 0.0740329 -0.0720457 -0.0136999 4.52745 0.729339 -5.54512 0.01 
2 1 1 -0.11629 -0.123452 0.110749 -0.0141325 0.221065 -0.041587 0 0 0 4.52745 0.729339 -5.54512 0.01 
3 1 1 -0.116821 -0.1232 0.11973 -0.00618695 0.183354 -0.0400597 0 0 0 4.52745 0.729339 -5.54512 0.01 
4 1 1 -0.117353 -0.122949 0.12871 0.00175861 0.145643 -0.0385324 0 0 0 4.52745 0.729339 -5.54512 0.01 
5 1 1 -0.117885 -0.122697 0.137691 0.00970417 0.107932 -0.0370051 0 0 0 4.52745 0.729339 -5.54512 0.01 
6 1 1 -0.118417 -0.122445 0.146672 0.0176497 0.0702214 -0.0354778 0 0 0 4.52745 0.729339 -5.54512 0.01 
7 1 1 -0.118949 -0.122194 0.155653 0.0255953 0.0325105 -0.0339505 0 0 0 4.52745 0.729339 -5.54512 0.01 
8 1 1 -0.11948 -0.121942 0.164633 0.0335409 -0.00520041 -0.0324232 0 0 0 4.52745 0.729339 -5.54512 0.01 
9 1 1 -0.120012 -0.12169 0.173614 0.0414864 -0.0429113 -0.0308959 0 0 0 4.52745 0.729339 -5.54512 0.01 
10 1 1 -0.120544 -0.121439 0.182595 0.049432 -0.0806223 -0.0293686 0 0 0 4.52745 0.729339 -5.54512 0.01 
11 1 2 -0.0321579 -0.108031 0.0531401 0.228514 0.0946157 -0.492842 0 0 0 6.12014 -3.86947 -7.22555 0.01 
12 1 2 -0.0330711 -0.107498 0.0620778 0.197783 0.046514 -0.493111 0 0 0 6.12014 -3.86947 -7.22555 0.01 
13 1 2 -0.0339842 -0.106965 0.0710155 0.167052 -0.00158771 -0.493381 0 0 0 6.12014 -3.86947 -7.22555 0.01 
14 1 2 -0.0348974 -0.106431 0.0799531 0.136321 -0.0496894 -0.493651 0 0 0 6.12014 -3.86947 -7.22555 0.01 
15 1 2 -0.0358105 -0.105898 0.0888908 0.10559 -0.0977912 -0.49392 0 0 0 6.12014 -3.86947 -7.22555 0.01 
16 1 2 -0.0367237 -0.105365 0.0978284 0.0748595 -0.145893 -0.49419 0 0 0 6.12014 -3.86947 -7.22555 0.01 
17 1 2 -0.0376368 -0.104831 0.106766 0.0441287 -0.193995 -0.49446 0 0 0 6.12014 -3.86947 -7.22555 0.01 
18 1 2 -0.03855 -0.104298 0.115704 0.0133979 -0.242096 -0.494729 0.0709764 -0.456975 -0.172306 6.12014 -3.86947 -7.22555 0.01 
19 1 2 -0.0394631 -0.103765 0.124641 -0.0173329 -0.290198 -0.494999 0 0 0 6.12014 -3.86947 -7.22555 0.01 
20 1 2 -0.0403762 -0.103232 0.133579 -0.0480638 -0.3383 -0.495269 -0.232618 0.67665 0.325448 6.12014 -3.86947 -7.22555 0.01 
21 1 3 -0.02985 -0.0279662 0.0254063 0.290925 -0.166994 -1.25476 0 0 0 7.39712 0.512632 -15.0443 0.01 
22 1 3 -0.0319444 -0.030414 0.0338099 0.258407 -0.197648 -1.27179 0 0 0 7.39712 0.512632 -15.0443 0.01 
23 1 3 -0.0340388 -0.0328619 0.0422136 0.225889 -0.228302 -1.28883 0 0 0 7.39712 0.512632 -15.0443 0.01 
24 1 3 -0.0361332 -0.0353097 0.0506173 0.193371 -0.258956 -1.30586 0 0 0 7.39712 0.512632 -15.0443 0.01 
25 1 3 -0.0382276 -0.0377575 0.0590209 0.160853 -0.28961 -1.32289 0 0 0 7.39712 0.512632 -15.0443 0.01 
26 1 3 -0.040322 -0.0402054 0.0674246 0.128335 -0.320264 -1.33993 0 0 0 7.39712 0.512632 -15.0443 0.01 
27 1 3 -0.0424164 -0.0426532 0.0758282 0.0958173 -0.350918 -1.35696 0 0 0 7.39712 0.512632 -15.0443 0.01 
28 1 3 -0.0445109 -0.0451011 0.0842319 0.0632993 -0.381572 -1.37399 0 0 0 7.39712 0.512632 -15.0443 0.01 
29 1 3 -0.0466053 -0.0475489 0.0926356 0.0307813 -0.412226 -1.39103 0 0 0 7.39712 0.512632 -15.0443 0.01 
30 1 3 -0.0486997 -0.0499967 0.101039 -0.00173667 -0.44288 -1.40806 0 0 0 7.39712 0.512632 -15.0443 0.01 
31 1 4 -0.0900861 0.108117 0.010219 0.0255398 0.0567622 0.0396639 0 0 0 -5.6194 2.2516 -12.3788 0.01 
32 1 4 -0.0896251 0.109184 0.0191436 0.0588411 0.101207 0.0326308 0 0 0 -5.6194 2.2516 -12.3788 0.01 
33 1 4 -0.0891641 0.11025 0.0280683 0.0921424 0.145651 0.0255976 0 0 0 -5.6194 2.2516 -12.3788 0.01 
34 1 4 -0.0887031 0.111317 0.0369929 0.125444 0.190096 0.0185644 0 0 0 -5.6194 2.2516 -12.3788 0.01 
35 1 4 -0.0882421 0.112384 0.0459176 0.158745 0.23454 0.0115313 0 0 0 -5.6194 2.2516 -12.3788 0.01 
36 1 4 -0.0877811 0.113451 0.0548422 0.192046 0.278985 0.0044981 0 0 0 -5.6194 2.2516 -12.3788 0.01 
37 1 4 -0.0873201 0.114518 0.0637668 0.225348 0.323429 -0.00253506 0 0 0 -5.6194 2.2516 -12.3788 0.01 
38 1 4 -0.0868591 0.115585 0.0726915 0.258649 0.367874 -0.00956823 0 0 0 -5.6194 2.2516 -12.3788 0.01 
39 1 4 -0.0863981 0.116652 0.0816161 0.29195 0.412318 -0.0166014 0 0 0 -5.6194 2.2516 -12.3788 0.01 
40 1 4 -0.0859371 0.117719 0.0905408 0.325252 0.456763 -0.0236346 0 0 0 -5.6194 2.2516 -12.3788 0.01 
41 1 5 0.0765234 -0.136504 0.02926 0.0264156 -0.0983339 -0.893767 0 0 0 -1.70975 -1.9778 -4.50861 0.01 
42 1 5 0.077238 -0.13522 0.0381393 0.0146401 -0.0863745 -0.894547 0 0 0 -1.70975 -1.9778 -4.50861 0.01 
43 1 5 0.0779526 -0.133937 0.0470186 0.00286466 -0.074415 -0.895328 0 0 0 -1.70975 -1.9778 -4.50861 0.01 
44 1 5 0.0786673 -0.132654 0.055898 -0.00891081 -0.0624555 -0.896109 0 0 0 -1.70975 -1.9778 -4.50861 0.01 
45 1 5 0.0793819 -0.13137 0.0647773 -0.0206863 -0.0504961 -0.89689 0 0 0 -1.70975 -1.9778 -4.50861 0.01 
46 1 5 0.0800965 -0.130087 0.0736566 -0.0324618 -0.0385366 -0.897671 0 0 0 -1.70975 -1.9778 -4.50861 0.01 
47 1 5 0.0808111 -0.128804 0.0825359 -0.0442372 -0.0265772 -0.898451 0 0 0 -1.70975 -1.9778 -4.50861 0.01 
48 1 5 0.0815257 -0.12752 0.0914153 -0.0560127 -0.0146177 -0.899232 0 0 0 -1.70975 -1.9778 -4.50861 0.01 
49 1 5 0.0822404 -0.126237 0.100295 -0.0677882 -0.00265823 -0.900013 0 0 0 -1.70975 -1.9778 -4.50861 0.01 
50 1 5 0.082955 -0.124954 0.109174 -0.0795636 0.00930123 -0.900794 0 0 0 -1.70975 -1.9778 -4.50861 0.01 
51 1 6 0.175427 -0.0339649 0.0102149 0.0101835 -0.104796 0.145829 0 0 0 9.14189 0.515722 -34.0241 0.01 
52 1 6 0.173375 -0.0352925 0.0188766 -0.0305186 -0.114156 0.134751 0 0 0 9.14189 0.515722 -34.0241 0.01 
53 1 6 0.171323 -0.03662 0.0275384 -0.0712207 -0.123517 0.123673 0 0 0 9.14189 0.515722 -34.0241 0.01 
54 1 6 0.16927 -0.0379476 0.0362001 -0.111923 -0.132878 0.112595 0 0 0 9.14189 0.515722 -34.0241 0.01 
55 1 6 0.167218 -0.0392752 0.0448619 -0.152625 -0.142238 0.101517 0 0 0 9.14189 0.515722 -34.0241 0.01 
56 1 6 0.165166 -0.0406027 0.0535237 -0.193327 -0.151599 0.090439 0 0 0 9.14189 0.515722 -34.0241 0.01 
57 1 6 0.163114 -0.0419303 0.0621854 -0.234029 -0.16096 0.0793609 0 0 0 9.14189 0.515722 -34.0241 0.01 
58 1 6 0.161062 -0.0432579 0.0708472 -0.274731 -0.17032 0.0682828 -0.352084 -0.0456574 -0.00874368 9.14189 0.515722 -34.0241 0.01 
59 1 6 0.159009 -0.0445854 0.0795089 -0.315433 -0.179681 0.0572047 0 0 0 9.14189 0.515722 -34.0241 0.01 
60 1 6 0.156957 -0.045913 0.0881707 -0.356135 -0.189042 0.0461266 0 0 0 9.14189 0.515722 -34.0241 0.01 
61 1 7 -0.0373237 0.217866 0.0109683 -0.0288257 -0.0246354 0.0963295 0 0 0 2.46548 -2.50184 16.4657 0.01 
62 1 7 -0.037707 0.21705 0.0199231 -0.0377952 -0.0530249 0.093359 0 0 0 2.46548 -2.50184 16.4657 0.01 
63 1 7 -0.0380903 0.216234 0.0288778 -0.0467648 -0.0814144 0.0903885 0 0 0 2.46548 -2.50184 16.4657 0.01 
64 1 7 -0.0384737 0.215419 0.0378326 -0.0557343 -0.109804 0.087418 0 0 0 2.46548 -2.50184 16.4657 0.01 
65 1 7 -0.038857 0.214603 0.0467873 -0.0647038 -0.138193 0.0844474 0 0 0 2.46548 -2.50184 16.4657 0.01 
66 1 7 -0.0392403 0.213787 0.055742 -0.0736734 -0.166583 0.0814769 0 0 0 2.46548 -2.50184 16.4657 0.01 
67 1 7 -0.0396237 0.212971 0.0646968 -0.0826429 -0.194973 0.0785064 0 0 0 2.46548 -2.50184 16.4657 0.01 
68 1 7 -0.040007 0.212155 0.0736515 -0.0916124 -0.223362 0.0755359 0 0 0 2.46548 -2.50184 16.4657 0.01 
69 1 7 -0.0403903 0.211339 0.0826063 -0.100582 -0.251752 0.0725653 0 0 0 2.46548 -2.50184 16.4657 0.01 
70 1 7 -0.0407737 0.210523 0.091561 -0.109552 -0.280141 0.0695948 0 0 0 2.46548 -2.50184 16.4657 0.01 
71 1 8 0.126528 -0.132385 0.108687 0.144591 -0.0188419 0.0678446 0.139473 -0.0270432 1.34266 -2.18232 -0.34324 -8.35325 0.01 
72 1 8 0.127571 -0.132421 0.117626 0.14122 -0.0080432 0.0682816 0 0 0 -2.18232 -0.34324 -8.35325 0.01 
73 1 8 0.128614 -0.132457 0.126566 0.137848 0.00275554 0.0687186 0 0 0 -2.18232 -0.34324 -8.35325 0.01 
74 1 8 0.129656 -0.132494 0.135505 0.134477 0.0135543 0.0691556 0 0 0 -2.18232 -0.34324 -8.35325 0.01 
75 1 8 0.130699 -0.13253 0.144444 0.131106 0.024353 0.0695926 0 0 0 -2.18232 -0.34324 -8.35325 0.01 
76 1 8 0.131742 -0.132566 0.153384 0.127735 0.0351518 0.0700296 0 0 0 -2.18232 -0.34324 -8.35325 0.01 
77 1 8 0.132784 -0.132602 0.162323 0.124364 0.0459505 0.0704665 0 0 0 -2.18232 -0.34324 -8.35325 0.01 
78 1 8 0.133827 -0.132639 0.171262 0.120993 0.0567493 0.0709035 0 0 0 -2.18232 -0.34324 -8.35325 0.01 
79 1 8 0.13487 -0.132675 0.180202 0.117622 0.067548 0.0713405 0 0 0 -2.18232 -0.34324 -8.35325 0.01 
80 1 8 0.135912 -0.132711 0.189141 0.114251 0.0783467 0.0717775 0 0 0 -2.18232 -0.34324 -8.35325 0.01 
81 1 9 -0.108663 0.0252146 0.108895 -0.351203 0.729294 -1.37745 -0.0134812 -0.777037 0.0660431 9.64624 5.54882 -5.51734 0.01 
82 1 9 -0.108026 0.0248022 0.117863 -0.303717 0.63927 -1.38496 0 0 0 9.64624 5.54882 -5.51734 0.01 
83 1 9 -0.107388 0.0243898 0.126831 -0.256231 0.549246 -1.39248 0 0 0 9.64624 5.54882 -5.51734 0.01 
84 1 9 -0.106751 0.0239774 0.135799 -0.208745 0.459222 -1.4 0 0 0 9.64624 5.54882 -5.51734 0.01 
85 1 9 -0.106113 0.023565 0.144767 -0.161259 0.369198 -1.40751 0 0 0 9.64624 5.54882 -5.51734 0.01 
86 1 9 -0.105476 0.0231526 0.153735 -0.113773 0.279174 -1.41503 0 0 0 9.64624 5.54882 -5.51734 0.01 
87 1 9 -0.104838 0.0227402 0.162703 -0.0662872 0.189149 -1.42254 0 0 0 9.64624 5.54882 -5.51734 0.01 
88 1 9 -0.104201 0.0223278 0.171671 -0.0188013 0.0991253 -1.43006 0 0 0 9.64624 5.54882 -5.51734 0.01 
89 1 9 -0.103563 0.0219154 0.180639 0.0286846 0.00910125 -1.43757 0 0 0 9.64624 5.54882 -5.51734 0.01 
90 1 9 -0.102925 0.021503 0.189607 0.0761706 -0.0809228 -1.44509 0 0 0 9.64624 5.54882 -5.51734 0.01 
91 1 10 0.0597507 0.199052 0.111105 0.147945 -0.0826657 0.03077 0 0 0 -2.34304 -1.74626 3.87264 0.01 
92 1 10 0.0586454 0.199839 0.120003 0.12936 -0.0660998 0.0269952 0 0 0 -2.34304 -1.74626 3.87264 0.01 
93 1 10 0.0575401 0.200626 0.1289 0.110774 -0.049534 0.0232204 0 0 0 -2.34304 -1.74626 3.87264 0.01 
94 1 10 0.0564348 0.201413 0.137797 0.0921888 -0.0329681 0.0194456 0 0 0 -2.34304 -1.74626 3.87264 0.01 
95 1 10 0.0553295 0.202201 0.146694 0.0736032 -0.0164022 0.0156708 0 0 0 -2.34304 -1.74626 3.87264 0.01 
96 1 10 0.0542242 0.202988 0.155591 0.0550177 0.000163676 0.011896 0 0 0 -2.34304 -1.74626 3.87264 0.01 
97 1 10 0.0531189 0.203775 0.164488 0.0364321 0.0167296 0.00812114 0 0 0 -2.34304 -1.74626 3.87264 0.01 
98 1 10 0.0520136 0.204563 0.173385 0.0178465 0.0332954 0.00434633 0 0 0 -2.34304 -1.74626 3.87264 0.01 
99 1 10 0.0509083 0.20535 0.182282 -0.000739018 0.0498613 0.000571523 0 0 0 -2.34304 -1.74626 3.87264 0.01 
100 1 10 0.049803 0.206137 0.191179 -0.0193246 0.0664272 -0.00320329 0 0 0 -2.34304 -1.74626 3.87264 0.01 
101 1 11 -0.201241 -0.0933585 0.077755 -0.531129 -0.197432 -0.484905 1.84793 3.0046 3.10122 -0.213829 4.42347 20.1358 0.01 
102 1 11 -0.20041 -0.0937626 0.0867074 -0.483391 -0.178787 -0.488494 -0.6443 -1.08041 0.692696 -0.213829 4.42347 20.1358 0.01 
103 1 11 -0.199579 -0.0941667 0.0956599 -0.435654 -0.160142 -0.492083 0 0 0 -0.213829 4.42347 20.1358 0.01 
104 1 11 -0.198748 -0.0945708 0.104612 -0.387916 -0.141497 -0.495672 0 0 0 -0.213829 4.42347 20.1358 0.01 
105 1 11 -0.197917 -0.0949749 0.113565 -0.340179 -0.122852 -0.499261 -1.51593 0.931884 1.3388 -0.213829 4.42347 20.1358 0.01 
106 1 11 -0.197087 -0.095379 0.122517 -0.292441 -0.104207 -0.50285 -0.439986 0.267729 0.3845 -0.213829 4.42347 20.1358 0.01 
107 1 11 -0.196256 -0.0957831 0.13147 -0.244704 -0.0855626 -0.506439 0 0 0 -0.213829 4.42347 20.1358 0.01 
108 1 11 -0.195425 -0.0961872 0.140422 -0.196966 -0.0669177 -0.510028 0 0 0 -0.213829 4.42347 20.1358 0.01 
109 1 11 -0.194594 -0.0965912 0.149375 -0.149228 -0.0482729 -0.513617 0 0 0 -0.213829 4.42347 20.1358 0.01 
110 1 11 -0.193763 -0.0969953 0.158327 -0.101491 -0.029628 -0.517206 0 0 0 -0.213829 4.42347 20.1358 0.01 
111 1 12 0.0957007 0.0504904 0.114102 -0.0780598 0.00785768 -0.0967947 2.66729 1.58562 3.31264 -1.08653 3.10889 -0.243687 0.01 
112 1 12 0.0976689 0.0519167 0.122768 -0.0507719 0.0167935 -0.104463 0 0 0 -1.08653 3.10889 -0.243687 0.01 
113 1 12 0.099637 0.0533431 0.131434 -0.023484 0.0257293 -0.112132 0 0 0 -1.08653 3.10889 -0.243687 0.01 
114 1 12 0.101605 0.0547694 0.140099 0.00380384 0.0346651 -0.1198 0 0 0 -1.08653 3.10889 -0.243687 0.01 
115 1 12 0.103573 0.0561958 0.148765 0.0310917 0.0436009 -0.127469 0 0 0 -1.08653 3.10889 -0.243687 0.01 
116 1 12 0.105542 0.0576221 0.15743 0.0583796 0.0525367 -0.135137 0 0 0 -1.08653 3.10889 -0.243687 0.01 
117 1 12 0.10751 0.0590484 0.166096 0.0856675 0.0614725 -0.142806 0 0 0 -1.08653 3.10889 -0.243687 0.01 
118 1 12 0.109478 0.0604748 0.174761 0.112955 0.0704083 -0.150475 0 0 0 -1.08653 3.10889 -0.243687 0.01 
119 1 12 0.111446 0.0619011 0.183427 0.140243 0.0793441 -0.158143 -0.431447 0.0636357 -0.129651 -1.08653 3.10889 -0.243687 0.01 
120 1 12 0.113414 0.0633275 0.192092 0.167531 0.0882799 -0.165812 0 0 0 -1.08653 3.10889 -0.243687 0.01 
121 1 13 -0.0157013 0.221717 0.107314 0.21014 0.165173 -0.0198846 0.267458 -1.6931 6.2263 2.60009 -8.47597 12.9887 0.01 
122 1 13 -0.0163833 0.220047 0.116131 0.157099 0.133389 -0.0300078 0 0 0 2.60009 -8.47597 12.9887 0.01 
123 1 13 -0.0170653 0.218376 0.124948 0.104059 0.101605 -0.040131 0 0 0 2.60009 -8.47597 12.9887 0.01 
124 1 13 -0.0177473 0.216706 0.133766 0.0510177 0.0698212 -0.0502542 0 0 0 2.60009 -8.47597 12.9887 0.01 
125 1 13 -0.0184292 0.215036 0.142583 -0.00202312 0.0380374 -0.0603774 0 0 0 2.60009 -8.47597 12.9887 0.01 
126 1 13 -0.0191112 0.213366 0.1514 -0.055064 0.0062536 -0.0705006 0 0 0 2.60009 -8.47597 12.9887 0.01 
127 1 13 -0.0197932 0.211695 0.160218 -0.108105 -0.0255302 -0.0806238 0 0 0 2.60009 -8.47597 12.9887 0.01 
128 1 13 -0.0204751 0.210025 0.169035 -0.161146 -0.057314 -0.090747 0 0 0 2.60009 -8.47597 12.9887 0.01 
129 1 13 -0.0211571 0.208355 0.177852 -0.214187 -0.0890979 -0.10087 0 0 0 2.60009 -8.47597 12.9887 0.01 
130 1 13 -0.0218391 0.206685 0.18667 -0.267227 -0.120882 -0.110993 0.761177 3.08187 -3.84218 2.60009 -8.47597 12.9887 0.01 
131 1 14 -0.0467241 0.120524 0.00991544 0.0141558 0.0210903 -0.00414364 0.042414 0.0469933 0.726857 -2.16287 1.4641 -3.76032 0.01 
132 1 14 -0.0458721 0.121432 0.0188288 0.0306221 0.037165 -0.00735593 0 0 0 -2.16287 1.4641 -3.76032 0.01 
133 1 14 -0.0450201 0.122341 0.0277423 0.0470883 0.0532398 -0.0105682 0 0 0 -2.16287 1.4641 -3.76032 0.01 
134 1 14 -0.0441681 0.123249 0.0366557 0.0635546 0.0693146 -0.0137805 0 0 0 -2.16287 1.4641 -3.76032 0.01 
135 1 14 -0.0433161 0.124158 0.0455691 0.0800208 0.0853894 -0.0169928 0 0 0 -2.16287 1.4641 -3.76032 0.01 
136 1 14 -0.0424641 0.125066 0.0544825 0.0964871 0.101464 -0.0202051 0 0 0 -2.16287 1.4641 -3.76032 0.01 
137 1 14 -0.0416121 0.125975 0.0633959 0.112953 0.117539 -0.0234174 0 0 0 -2.16287 1.4641 -3.76032 0.01 
138 1 14 -0.0407601 0.126883 0.0723093 0.12942 0.133614 -0.0266297 0 0 0 -2.16287 1.4641 -3.76032 0.01 
139 1 14 -0.0399081 0.127792 0.0812227 0.145886 0.149688 -0.029842 0 0 0 -2.16287 1.4641 -3.76032 0.01 
140 1 14 -0.0390561 0.1287 0.0901361 0.162352 0.165763 -0.0330543 0 0 0 -2.16287 1.4641 -3.76032 0.01 
141 1 15 -0.0104758 -0.0692281 0.0135178 0 0 -2.47145 0 0 0 0 0 0 0.01 
142 1 15 -0.0104758 -0.0692281 0.0225178 0 0 -2.47145 0 0 0 0 0 0 0.01 
143 1 15 -0.0104758 -0.0692281 0.0315178 0 0 -2.47145 0 0 0 0 0 0 0.01 
144 1 15 -0.0104758 -0.0692281 0.0405178 0 0 -2.47145 0 0 0 0 0 0 0.01 
145 1 15 -0.0104758 -0.0692281 0.0495178 0 0 -2.47145 0 0 0 0 0 0 0.01 
146 1 15 -0.0104758 -0.0692281 0.0585178 0 0 -2.47145 0 0 0 0 0 0 0.01 
147 1 15 -0.0104758 -0.0692281 0.0675178 0 0 -2.47145 0 0 0 0 0 0 0.01 
148 1 15 -0.0104758 -0.0692281 0.0765178 0 0 -2.47145 0 0 0 0 0 0 0.01 
149 1 15 -0.0104758 -0.0692281 0.0855178 0 0 -2.47145 0 0 0 0 0 0 0.01 
150 1 15 -0.0104758 -0.0692281 0.0945178 0 0 -2.47145 0 0 0 0 0 0 0.01 
151 1 16 -0.03758 0.178721 0.0263935 -0.0317672 -0.158244 -0.883115 0 0 0 -5.1031 1.50114 1.37371 0.01 
152 1 16 -0.0374872 0.179095 0.0353852 -0.0187837 -0.112231 -0.885165 0 0 0 -5.1031 1.50114 1.37371 0.01 
153 1 16 -0.0373944 0.17947 0.044377 -0.00580033 -0.0662176 -0.887215 0 0 0 -5.1031 1.50114 1.37371 0.01 
154 1 16 -0.0373016 0.179844 0.0533687 0.0071831 -0.0202045 -0.889266 0 0 0 -5.1031 1.50114 1.37371 0.01 
155 1 16 -0.0372088 0.180219 0.0623604 0.0201665 0.0258087 -0.891316 0 0 0 -5.1031 1.50114 1.37371 0.01 
156 1 16 -0.037116 0.180593 0.0713522 0.0331499 0.0718218 -0.893366 0 0 0 -5.1031 1.50114 1.37371 0.01 
157 1 16 -0.0370232 0.180967 0.0803439 0.0461334 0.117835 -0.895416 0 0 0 -5.1031 1.50114 1.37371 0.01 
158 1 16 -0.0369303 0.181342 0.0893356 0.0591168 0.163848 -0.897466 0 0 0 -5.1031 1.50114 1.37371 0.01 
159 1 16 -0.0368375 0.181716 0.0983273 0.0721002 0.209861 -0.899517 0 0 0 -5.1031 1.50114 1.37371 0.01 
160 1 16 -0.0367447 0.182091 0.107319 0.0850836 0.255874 -0.901567 0 0 0 -5.1031 1.50114 1.37371 0.01 
161 1 17 0.0722371 0.0929677 0.00988828 0.00402529 -0.00704511 0.000220804 0.0451541 -0.0330027 0.983171 0.702996 0.463869 -0.330261 0.01 
162 1 17 0.07251 0.0925018 0.0188721 0.00803874 -0.0134508 -0.000233292 0 0 0 0.702996 0.463869 -0.330261 0.01 
163 1 17 0.072783 0.092036 0.0278559 0.0120522 -0.0198565 -0.000687387 0 0 0 0.702996 0.463869 -0.330261 0.01 
164 1 17 0.0730559 0.0915701 0.0368397 0.0160656 -0.0262622 -0.00114148 0 0 0 0.702996 0.463869 -0.330261 0.01 
165 1 17 0.0733288 0.0911042 0.0458234 0.0200791 -0.0326679 -0.00159558 0 0 0 0.702996 0.463869 -0.330261 0.01 
166 1 17 0.0736018 0.0906384 0.0548072 0.0240925 -0.0390736 -0.00204967 0 0 0 0.702996 0.463869 -0.330261 0.01 
167 1 17 0.0738747 0.0901725 0.063791 0.028106 -0.0454794 -0.00250377 0 0 0 0.702996 0.463869 -0.330261 0.01 
168 1 17 0.0741476 0.0897067 0.0727748 0.0321194 -0.0518851 -0.00295787 0 0 0 0.702996 0.463869 -0.330261 0.01 
169 1 17 0.0744205 0.0892408 0.0817586 0.0361329 -0.0582908 -0.00341196 0 0 0 0.702996 0.463869 -0.330261 0.01 
170 1 17 0.0746935 0.088775 0.0907424 0.0401463 -0.0646965 -0.00386606 0 0 0 0.702996 0.463869 -0.330261 0.01 
171 1 18 -0.245512 -0.0431894 0.106713 -0.307669 0.0699015 -1.52514 -0.474801 1.07037 0.572589 3.73584 5.09898 1.04913 0.01 
172 1 18 -0.244781 -0.0428366 0.115676 -0.262336 0.0371827 -1.52755 0 0 0 3.73584 5.09898 1.04913 0.01 
173 1 18 -0.24405 -0.0424838 0.124639 -0.217002 0.00446398 -1.52996 0 0 0 3.73584 5.09898 1.04913 0.01 
174 1 18 -0.243319 -0.042131 0.133603 -0.171668 -0.0282548 -1.53237 0 0 0 3.73584 5.09898 1.04913 0.01 
175 1 18 -0.242588 -0.0417782 0.142566 -0.126335 -0.0609735 -1.53478 0 0 0 3.73584 5.09898 1.04913 0.01 
176 1 18 -0.241857 -0.0414254 0.151529 -0.0810011 -0.0936923 -1.53719 0 0 0 3.73584 5.09898 1.04913 0.01 
177 1 18 -0.241126 -0.0410726 0.160493 -0.0356674 -0.126411 -1.5396 0 0 0 3.73584 5.09898 1.04913 0.01 
178 1 18 -0.240395 -0.0407198 0.169456 0.00966625 -0.15913 -1.54201 0 0 0 3.73584 5.09898 1.04913 0.01 
179 1 18 -0.239665 -0.040367 0.178419 0.0549999 -0.191849 -1.54442 0 0 0 3.73584 5.09898 1.04913 0.01 
180 1 18 -0.238934 -0.0400142 0.187383 0.100334 -0.224567 -1.54682 0 0 0 3.73584 5.09898 1.04913 0.01 
181 1 19 0.00128116 0.170539 0.109754 0.0833759 0.174604 -0.057063 0.0669087 0.0612101 0.0881555 3.11198 0.782326 -3.62405 0.01 
182 1 19 0.00267729 0.169207 0.118544 0.0854246 0.142188 -0.0623015 0 0 0 3.11198 0.782326 -3.62405 0.01 
183 1 19 0.00407341 0.167874 0.127335 0.0874732 0.109772 -0.0675399 0 0 0 3.11198 0.782326 -3.62405 0.01 
184 1 19 0.00546954 0.166542 0.136126 0.0895218 0.0773558 -0.0727784 0 0 0 3.11198 0.782326 -3.62405 0.01 
185 1 19 0.00686567 0.16521 0.144916 0.0915705 0.0449398 -0.0780169 0 0 0 3.11198 0.782326 -3.62405 0.01 
186 1 19 0.00826179 0.163877 0.153707 0.0936191 0.0125239 -0.0832554 0 0 0 3.11198 0.782326 -3.62405 0.01 
187 1 19 0.00965792 0.162545 0.162498 0.0956678 -0.0198921 -0.0884939 0 0 0 3.11198 0.782326 -3.62405 0.01 
188 1 19 0.011054 0.161213 0.171288 0.0977164 -0.0523081 -0.0937324 0 0 0 3.11198 0.782326 -3.62405 0.01 
189 1 19 0.0124502 0.15988 0.180079 0.0997651 -0.0847241 -0.0989709 0 0 0 3.11198 0.782326 -3.62405 0.01 
190 1 19 0.0138463 0.158548 0.188869 0.101814 -0.11714 -0.104209 0 0 0 3.11198 0.782326 -3.62405 0.01 
191 1 20 -0.00683684 0.18795 0.00986023 0.0295852 0.0267955 0.0290664 -0.437395 0.235363 1.0376 -2.08505 2.33174 7.73811 0.01 
192 1 20 -0.00649199 0.188918 0.0188014 0.0429455 0.0481068 0.0262446 -0.0863543 -0.0207505 0.0436603 -2.08505 2.33174 7.73811 0.01 
193 1 20 -0.00614715 0.189885 0.0277426 0.0563059 0.0694181 0.0234228 0 0 0 -2.08505 2.33174 7.73811 0.01 
194 1 20 -0.0058023 0.190853 0.0366838 0.0696663 0.0907293 0.0206011 0 0 0 -2.08505 2.33174 7.73811 0.01 
195 1 20 -0.00545746 0.191821 0.0456249 0.0830266 0.112041 0.0177793 0 0 0 -2.08505 2.33174 7.73811 0.01 
196 1 20 -0.00511261 0.192788 0.0545661 0.096387 0.133352 0.0149575 0 0 0 -2.08505 2.33174 7.73811 0.01 
197 1 20 -0.00476777 0.193756 0.0635073 0.109747 0.154663 0.0121357 0 0 0 -2.08505 2.33174 7.73811 0.01 
198 1 20 -0.00442292 0.194724 0.0724485 0.123108 0.175974 0.00931395 0 0 0 -2.08505 2.33174 7.73811 0.01 
199 1 20 -0.00407808 0.195691 0.0813896 0.136468 0.197286 0.00649217 0 0 0 -2.08505 2.33174 7.73811 0.01 
200 1 20 -0.00373323 0.196659 0.0903308 0.149828 0.218597 0.00367039 -0.106808 -0.0456675 -0.00250254 -2.08505 2.33174 7.73811 0.01 
201 1 21 0.0182046 0.00495131 0.00984315 0.00431708 0.0240746 0.0205974 -0.110558 0.115743 1.19745 -1.53509 -0.181721 -5.71821 0.01 
202 1 21 0.0172027 0.006486 0.0186546 0.0114916 0.0433301 0.0180594 0 0 0 -1.53509 -0.181721 -5.71821 0.01 
203 1 21 0.0162008 0.0080207 0.027466 0.018666 0.0625855 0.0155215 0 0 0 -1.53509 -0.181721 -5.71821 0.01 
204 1 21 0.0151989 0.00955539 0.0362774 0.0258405 0.0818409 0.0129835 0 0 0 -1.53509 -0.181721 -5.71821 0.01 
205 1 21 0.014197 0.0110901 0.0450888 0.033015 0.101096 0.0104456 0 0 0 -1.53509 -0.181721 -5.71821 0.01 
206 1 21 0.013195 0.0126248 0.0539002 0.0401895 0.120352 0.00790761 0 0 0 -1.53509 -0.181721 -5.71821 0.01 
207 1 21 0.0121931 0.0141595 0.0627116 0.0473639 0.139607 0.00536965 0 0 0 -1.53509 -0.181721 -5.71821 0.01 
208 1 21 0.0111912 0.0156942 0.071523 0.0545384 0.158863 0.0028317 0 0 0 -1.53509 -0.181721 -5.71821 0.01 
209 1 21 0.0101893 0.0172289 0.0803344 0.0617129 0.178118 0.000293745 0 0 0 -1.53509 -0.181721 -5.71821 0.01 
210 1 21 0.00918738 0.0187636 0.0891458 0.0688874 0.197373 -0.00224421 -0.0458936 -0.000229055 -0.0153333 -1.53509 -0.181721 -5.71821 0.01 
211 1 22 0.00263315 0.212397 0.110298 0.0885552 0.175763 -0.137739 -0.953347 -0.575214 1.3068 3.66274 -4.61489 4.55756 0.01 
212 1 22 0.00205083 0.209725 0.118872 0.0611675 0.141704 -0.150216 0 0 0 3.66274 -4.61489 4.55756 0.01 
213 1 22 0.0014685 0.207052 0.127446 0.0337799 0.107645 -0.162693 0 0 0 3.66274 -4.61489 4.55756 0.01 
214 1 22 0.000886179 0.204379 0.13602 0.00639226 0.073586 -0.17517 0 0 0 3.66274 -4.61489 4.55756 0.01 
215 1 22 0.000303854 0.201706 0.144595 -0.0209954 0.0395269 -0.187647 0 0 0 3.66274 -4.61489 4.55756 0.01 
216 1 22 -0.00027847 0.199033 0.153169 -0.048383 0.00546783 -0.200125 0 0 0 3.66274 -4.61489 4.55756 0.01 
217 1 22 -0.000860795 0.196361 0.161743 -0.0757707 -0.0285912 -0.212602 0 0 0 3.66274 -4.61489 4.55756 0.01 
218 1 22 -0.00144312 0.193688 0.170317 -0.103158 -0.0626503 -0.225079 0 0 0 3.66274 -4.61489 4.55756 0.01 
219 1 22 -0.00202544 0.191015 0.178892 -0.130546 -0.0967094 -0.237556 0 0 0 3.66274 -4.61489 4.55756 0.01 
220 1 22 -0.00260777 0.188342 0.187466 -0.157934 -0.130768 -0.250033 0 0 0 3.66274 -4.61489 4.55756 0.01 
221 1 23 0.214069 0.0529816 0.107893 -0.139846 -0.162213 0.395668 0.971867 1.02844 -0.327972 -5.79264 0.00490552 0.434533 0.01 
222 1 23 0.213657 0.0538758 0.116839 -0.140191 -0.110571 0.39049 0 0 0 -5.79264 0.00490552 0.434533 0.01 
223 1 23 0.213245 0.0547699 0.125785 -0.140536 -0.0589295 0.385313 0 0 0 -5.79264 0.00490552 0.434533 0.01 
224 1 23 0.212833 0.0556641 0.134731 -0.14088 -0.00728784 0.380135 0 0 0 -5.79264 0.00490552 0.434533 0.01 
225 1 23 0.21242 0.0565583 0.143677 -0.141225 0.0443538 0.374957 0 0 0 -5.79264 0.00490552 0.434533 0.01 
226 1 23 0.212008 0.0574525 0.152623 -0.14157 0.0959954 0.36978 0 0 0 -5.79264 0.00490552 0.434533 0.01 
227 1 23 0.211596 0.0583467 0.161569 -0.141914 0.147637 0.364602 0 0 0 -5.79264 0.00490552 0.434533 0.01 
228 1 23 0.211183 0.0592409 0.170515 -0.142259 0.199279 0.359424 0 0 0 -5.79264 0.00490552 0.434533 0.01 
229 1 23 0.210771 0.0601351 0.179461 -0.142604 0.25092 0.354247 0 0 0 -5.79264 0.00490552 0.434533 0.01 
230 1 23 0.210359 0.0610292 0.188407 -0.142948 0.302562 0.349069 0 0 0 -5.79264 0.00490552 0.434533 0.01 
231 1 24 0.158417 0.0234511 0.00948457 0.0186893 -0.0383887 0.02469 1.3609 -2.00946 9.07076 2.08406 2.06774 0.477738 0.01 
232 1 24 0.159451 0.0212646 0.0181535 0.0376589 -0.0559612 0.0179951 0 0 0 2.08406 2.06774 0.477738 0.01 
233 1 24 0.160485 0.0190782 0.0268224 0.0566285 -0.0735337 0.0113001 0 0 0 2.08406 2.06774 0.477738 0.01 
234 1 24 0.161519 0.0168918 0.0354913 0.0755981 -0.0911061 0.00460517 0 0 0 2.08406 2.06774 0.477738 0.01 
235 1 24 0.162553 0.0147053 0.0441602 0.0945677 -0.108679 -0.00208979 0 0 0 2.08406 2.06774 0.477738 0.01 
236 1 24 0.163587 0.0125189 0.0528291 0.113537 -0.126251 -0.00878475 0 0 0 2.08406 2.06774 0.477738 0.01 
237 1 24 0.164622 0.0103324 0.061498 0.132507 -0.143824 -0.0154797 0 0 0 2.08406 2.06774 0.477738 0.01 
238 1 24 0.165656 0.00814597 0.070167 0.151476 -0.161396 -0.0221747 0 0 0 2.08406 2.06774 0.477738 0.01 
239 1 24 0.16669 0.00595953 0.0788359 0.170446 -0.178968 -0.0288696 0 0 0 2.08406 2.06774 0.477738 0.01 
240 1 24 0.167724 0.00377308 0.0875048 0.189416 -0.196541 -0.0355646 0.46974 0.314216 -4.97314 2.08406 2.06774 0.477738 0.01 
241 1 25 0.134714 -0.174173 0.112948 -0.0145216 -0.0030225 -0.0336272 0 0 0 -0.335903 1.46202 -0.00773386 0.01 
242 1 25 0.13518 -0.174065 0.121936 -0.00138114 -7.24648e-06 -0.0343441 0 0 0 -0.335903 1.46202 -0.00773386 0.01 
243 1 25 0.135646 -0.173958 0.130923 0.0117593 0.00300801 -0.035061 0 0 0 -0.335903 1.46202 -0.00773386 0.01 
244 1 25 0.136111 -0.173851 0.13991 0.0248998 0.00602327 -0.0357778 0 0 0 -0.335903 1.46202 -0.00773386 0.01 
245 1 25 0.136577 -0.173743 0.148897 0.0380402 0.00903852 -0.0364947 0 0 0 -0.335903 1.46202 -0.00773386 0.01 
246 1 25 0.137043 -0.173636 0.157885 0.0511807 0.0120538 -0.0372116 0 0 0 -0.335903 1.46202 -0.00773386 0.01 
247 1 25 0.137508 -0.173529 0.166872 0.0643211 0.015069 -0.0379284 0 0 0 -0.335903 1.46202 -0.00773386 0.01 
248 1 25 0.137974 -0.173421 0.175859 0.0774616 0.0180843 -0.0386453 0 0 0 -0.335903 1.46202 -0.00773386 0.01 
249 1 25 0.138439 -0.173314 0.184847 0.0906021 0.0210996 -0.0393622 0 0 0 -0.335903 1.46202 -0.00773386 0.01 
250 1 25 0.138905 -0.173207 0.193834 0.103743 0.0241148 -0.040079 0 0 0 -0.335903 1.46202 -0.00773386 0.01 
251 1 26 -0.00706522 -0.170141 0.00983322 0.0202596 -0.0133164 0.0106142 -0.618672 0.482793 1.56951 0.567479 2.58837 -7.90094 0.01 
252 1 26 -0.00587601 -0.171221 0.0186887 0.0346506 -0.0277376 0.00692346 -0.00165646 0.000916037 -0.000674172 0.567479 2.58837 -7.90094 0.01 
253 1 26 -0.0046868 -0.172301 0.0275442 0.0490416 -0.0421588 0.00323266 0 0 0 0.567479 2.58837 -7.90094 0.01 
254 1 26 -0.00349759 -0.17338 0.0363998 0.0634325 -0.05658 -0.000458128 0 0 0 0.567479 2.58837 -7.90094 0.01 
255 1 26 -0.00230839 -0.17446 0.0452553 0.0778235 -0.0710011 -0.00414892 0 0 0 0.567479 2.58837 -7.90094 0.01 
256 1 26 -0.00111918 -0.17554 0.0541108 0.0922145 -0.0854223 -0.00783971 0 0 0 0.567479 2.58837 -7.90094 0.01 
257 1 26 7.00295e-05 -0.176619 0.0629663 0.106605 -0.0998435 -0.0115305 0 0 0 0.567479 2.58837 -7.90094 0.01 
258 1 26 0.00125924 -0.177699 0.0718218 0.120996 -0.114265 -0.0152213 0 0 0 0.567479 2.58837 -7.90094 0.01 
259 1 26 0.00244844 -0.178779 0.0806773 0.135387 -0.128686 -0.0189121 0 0 0 0.567479 2.58837 -7.90094 0.01 
260 1 26 0.00363765 -0.179858 0.0895328 0.149778 -0.143107 -0.0226029 0 0 0 0.567479 2.58837 -7.90094 0.01 
261 1 27 -0.130065 0.165392 0.115734 0.4427 0.275685 0.205251 0 0 0 7.20286 -3.41792 -8.61444 0.01 
262 1 27 -0.13196 0.162629 0.124088 0.390347 0.231834 0.178875 0 0 0 7.20286 -3.41792 -8.61444 0.01 
263 1 27 -0.133854 0.159866 0.132441 0.337994 0.187983 0.1525 0 0 0 7.20286 -3.41792 -8.61444 0.01 
264 1 27 -0.135748 0.157103 0.140794 0.285642 0.144131 0.126125 0 0 0 7.20286 -3.41792 -8.61444 0.01 
265 1 27 -0.137642 0.15434 0.149148 0.233289 0.10028 0.0997492 0 0 0 7.20286 -3.41792 -8.61444 0.01 
266 1 27 -0.139536 0.151577 0.157501 0.180937 0.0564293 0.0733739 0 0 0 7.20286 -3.41792 -8.61444 0.01 
267 1 27 -0.14143 0.148814 0.165854 0.128584 0.0125783 0.0469985 0 0 0 7.20286 -3.41792 -8.61444 0.01 
268 1 27 -0.143324 0.146051 0.174208 0.0762314 -0.0312728 0.0206231 0 0 0 7.20286 -3.41792 -8.61444 0.01 
269 1 27 -0.145219 0.143288 0.182561 0.0238788 -0.0751238 -0.00575222 0 0 0 7.20286 -3.41792 -8.61444 0.01 
270 1 27 -0.147113 0.140525 0.190914 -0.0284738 -0.118975 -0.0321276 0 0 0 7.20286 -3.41792 -8.61444 0.01 
271 1 28 0.0146489 -0.170307 0.1044 0.0275769 -0.1669 -0.354398 0 0 0 -1.93639 -3.89274 -4.13241 0.01 
272 1 28 0.0128222 -0.168183 0.112953 0.00306091 -0.14279 -0.365622 0 0 0 -1.93639 -3.89274 -4.13241 0.01 
273 1 28 0.0109955 -0.166058 0.121506 -0.0214551 -0.11868 -0.376847 0 0 0 -1.93639 -3.89274 -4.13241 0.01 
274 1 28 0.00916877 -0.163934 0.130058 -0.0459711 -0.0945693 -0.388071 0 0 0 -1.93639 -3.89274 -4.13241 0.01 
275 1 28 0.00734206 -0.16181 0.138611 -0.0704871 -0.0704589 -0.399295 0 0 0 -1.93639 -3.89274 -4.13241 0.01 
276 1 28 0.00551535 -0.159686 0.147164 -0.0950032 -0.0463486 -0.410519 0 0 0 -1.93639 -3.89274 -4.13241 0.01 