ITEM: TIMESTEP
33000
ITEM: NUMBER OF ATOMS
6300
ITEM: BOX BOUNDS mm mm mm
-0.36626 0.357417
-0.331174 0.377479
0 0.5
ITEM: ATOMS id type mol x y z vx vy vz fx fy fz omegax omegay omegaz radius 
1 1 1 -0.137009 -0.112181 0.0846581 -0.269261 -0.000991062 -0.060331 0.0190561 0.0028381 0.0143369 5.29241 1.9849 -2.35735 0.01 
2 1 1 -0.13683 -0.117833 0.0916598 -0.268686 -0.0384678 -0.0905973 -0.346421 0.00298216 0.150703 5.29241 1.9849 -2.35735 0.01 
3 1 1 -0.136652 -0.123485 0.0986616 -0.268112 -0.0759446 -0.120864 0 0 0 5.29241 1.9849 -2.35735 0.01 
4 1 1 -0.136473 -0.129137 0.105663 -0.267538 -0.113421 -0.15113 0 0 0 5.29241 1.9849 -2.35735 0.01 
5 1 1 -0.136295 -0.134789 0.112665 -0.266964 -0.150898 -0.181396 0 0 0 5.29241 1.9849 -2.35735 0.01 
6 1 1 -0.136116 -0.140441 0.119667 -0.266389 -0.188375 -0.211663 0 0 0 5.29241 1.9849 -2.35735 0.01 
7 1 1 -0.135938 -0.146092 0.126669 -0.265815 -0.225852 -0.241929 0 0 0 5.29241 1.9849 -2.35735 0.01 
8 1 1 -0.13576 -0.151744 0.13367 -0.265241 -0.263328 -0.272195 0 0 0 5.29241 1.9849 -2.35735 0.01 
9 1 1 -0.135581 -0.157396 0.140672 -0.264667 -0.300805 -0.302462 0 0 0 5.29241 1.9849 -2.35735 0.01 
10 1 1 -0.135403 -0.163048 0.147674 -0.264093 -0.338282 -0.332728 0 0 0 5.29241 1.9849 -2.35735 0.01 
11 1 2 -0.0213741 -0.127 0.0277331 -0.0580726 -0.131945 -0.128588 0.112825 0.697653 0.857178 2.12939 -0.417121 -2.3018 0.01 
12 1 2 -0.0239692 -0.128435 0.0362306 -0.0649198 -0.144066 -0.132725 0 0 0 2.12939 -0.417121 -2.3018 0.01 
13 1 2 -0.0265643 -0.12987 0.0447281 -0.0717671 -0.156187 -0.136863 0 0 0 2.12939 -0.417121 -2.3018 0.01 
14 1 2 -0.0291593 -0.131305 0.0532255 -0.0786143 -0.168308 -0.141001 0 0 0 2.12939 -0.417121 -2.3018 0.01 
15 1 2 -0.0317544 -0.13274 0.061723 -0.0854615 -0.180429 -0.145139 0.0260917 0.0252068 -0.0102102 2.12939 -0.417121 -2.3018 0.01 
16 1 2 -0.0343494 -0.134174 0.0702205 -0.0923088 -0.19255 -0.149277 1.11016 -1.84075 -0.45829 2.12939 -0.417121 -2.3018 0.01 
17 1 2 -0.0369445 -0.135609 0.0787179 -0.099156 -0.204671 -0.153415 0 0 0 2.12939 -0.417121 -2.3018 0.01 
18 1 2 -0.0395395 -0.137044 0.0872154 -0.106003 -0.216792 -0.157552 -1.89762 -1.25501 0.678619 2.12939 -0.417121 -2.3018 0.01 
19 1 2 -0.0421346 -0.138479 0.0957128 -0.11285 -0.228913 -0.16169 0.5115 1.04244 0.98428 2.12939 -0.417121 -2.3018 0.01 
20 1 2 -0.0447297 -0.139914 0.10421 -0.119698 -0.241035 -0.165828 0.495044 0.778316 -0.843568 2.12939 -0.417121 -2.3018 0.01 
21 1 3 -0.0291263 -0.0395194 0.0100061 0.0616028 -0.0991237 0.0274023 0.0212942 0.0485314 0.0128882 -0.953606 -5.6435 2.11911 0.01 
22 1 3 -0.0325406 -0.0450624 0.0162204 0.0382787 -0.100433 0.0134196 0 0 0 -0.953606 -5.6435 2.11911 0.01 
23 1 3 -0.0359549 -0.0506054 0.0224347 0.0149545 -0.101742 -0.000563183 0.319004 0.0856602 0.375041 -0.953606 -5.6435 2.11911 0.01 
24 1 3 -0.0393692 -0.0561484 0.0286491 -0.0083696 -0.103052 -0.0145459 0.0429711 -0.00845367 0.0447019 -0.953606 -5.6435 2.11911 0.01 
25 1 3 -0.0427835 -0.0616914 0.0348634 -0.0316937 -0.104361 -0.0285287 0 0 0 -0.953606 -5.6435 2.11911 0.01 
26 1 3 -0.0461978 -0.0672344 0.0410777 -0.0550179 -0.10567 -0.0425114 0 0 0 -0.953606 -5.6435 2.11911 0.01 
27 1 3 -0.0496121 -0.0727774 0.047292 -0.078342 -0.106979 -0.0564941 0 0 0 -0.953606 -5.6435 2.11911 0.01 
28 1 3 -0.0530264 -0.0783204 0.0535063 -0.101666 -0.108289 -0.0704769 -1.61487 0.155181 1.10857 -0.953606 -5.6435 2.11911 0.01 
29 1 3 -0.0564407 -0.0838635 0.0597206 -0.12499 -0.109598 -0.0844596 -0.248362 -0.0901331 -0.363238 -0.953606 -5.6435 2.11911 0.01 
30 1 3 -0.059855 -0.0894065 0.0659349 -0.148314 -0.110907 -0.0984424 0.757413 -0.325175 -0.389253 -0.953606 -5.6435 2.11911 0.01 
31 1 4 -0.0886146 0.11993 0.00986575 0.0437871 0.0810838 -0.000900069 0.372224 -0.545699 1.32112 -5.02312 4.47452 6.38313 0.01 
32 1 4 -0.0910318 0.125666 0.016366 0.0362579 0.0983064 -0.018898 0 0 0 -5.02312 4.47452 6.38313 0.01 
33 1 4 -0.093449 0.131402 0.0228663 0.0287287 0.115529 -0.0368959 0 0 0 -5.02312 4.47452 6.38313 0.01 
34 1 4 -0.0958661 0.137138 0.0293666 0.0211994 0.132752 -0.0548938 -0.921298 0.385317 -0.274896 -5.02312 4.47452 6.38313 0.01 
35 1 4 -0.0982833 0.142875 0.0358668 0.0136702 0.149974 -0.0728917 -0.672042 0.667231 -1.34569 -5.02312 4.47452 6.38313 0.01 
36 1 4 -0.1007 0.148611 0.0423671 0.006141 0.167197 -0.0908896 0.566122 0.244209 0.166805 -5.02312 4.47452 6.38313 0.01 
37 1 4 -0.103118 0.154347 0.0488674 -0.00138822 0.184419 -0.108887 0.278639 -0.295453 0.580855 -5.02312 4.47452 6.38313 0.01 
38 1 4 -0.105535 0.160083 0.0553676 -0.00891744 0.201642 -0.126885 0.227989 -0.300231 0.584371 -5.02312 4.47452 6.38313 0.01 
39 1 4 -0.107952 0.165819 0.0618679 -0.0164467 0.218864 -0.144883 -1.57522 -0.595639 0.816671 -5.02312 4.47452 6.38313 0.01 
40 1 4 -0.110369 0.171555 0.0683682 -0.0239759 0.236087 -0.162881 0 0 0 -5.02312 4.47452 6.38313 0.01 
41 1 5 0.079498 -0.135459 0.00993277 0.00334527 0.00240125 -0.00101018 0.0147322 0.0261188 0.499892 -0.226049 0.279506 -3.32336 0.01 
42 1 5 0.0804841 -0.134584 0.0188357 0.00873975 0.00113651 -0.00148348 0 0 0 -0.226049 0.279506 -3.32336 0.01 
43 1 5 0.0814703 -0.13371 0.0277387 0.0141342 -0.000128226 -0.00195677 0 0 0 -0.226049 0.279506 -3.32336 0.01 
44 1 5 0.0824564 -0.132836 0.0366417 0.0195287 -0.00139296 -0.00243006 0 0 0 -0.226049 0.279506 -3.32336 0.01 
45 1 5 0.0834425 -0.131961 0.0455447 0.0249232 -0.0026577 -0.00290335 0 0 0 -0.226049 0.279506 -3.32336 0.01 
46 1 5 0.0844286 -0.131087 0.0544476 0.0303177 -0.00392244 -0.00337664 0 0 0 -0.226049 0.279506 -3.32336 0.01 
47 1 5 0.0854148 -0.130212 0.0633506 0.0357121 -0.00518718 -0.00384993 0.0314021 -0.0180121 -0.029239 -0.226049 0.279506 -3.32336 0.01 
48 1 5 0.0864009 -0.129338 0.0722536 0.0411066 -0.00645191 -0.00432322 0 0 0 -0.226049 0.279506 -3.32336 0.01 
49 1 5 0.087387 -0.128463 0.0811566 0.0465011 -0.00771665 -0.00479652 0 0 0 -0.226049 0.279506 -3.32336 0.01 
50 1 5 0.0883731 -0.127589 0.0900595 0.0518956 -0.00898139 -0.00526981 0 0 0 -0.226049 0.279506 -3.32336 0.01 
51 1 6 0.190431 -0.0334985 0.0179695 0.0746116 -0.0942477 0.2614 0 0 0 21.7248 5.00821 -4.36235 0.01 
52 1 6 0.18384 -0.0392119 0.0201873 0.060795 -0.113679 0.170284 0 0 0 21.7248 5.00821 -4.36235 0.01 
53 1 6 0.177249 -0.0449254 0.0224052 0.0469784 -0.13311 0.0791683 0 0 0 21.7248 5.00821 -4.36235 0.01 
54 1 6 0.170658 -0.0506389 0.024623 0.0331618 -0.152542 -0.0119476 0 0 0 21.7248 5.00821 -4.36235 0.01 
55 1 6 0.164068 -0.0563523 0.0268409 0.0193452 -0.171973 -0.103063 0.0367898 -0.840332 2.45232 21.7248 5.00821 -4.36235 0.01 
56 1 6 0.157477 -0.0620658 0.0290587 0.00552854 -0.191404 -0.194179 0 0 0 21.7248 5.00821 -4.36235 0.01 
57 1 6 0.150886 -0.0677792 0.0312766 -0.00828808 -0.210836 -0.285295 0 0 0 21.7248 5.00821 -4.36235 0.01 
58 1 6 0.144296 -0.0734927 0.0334945 -0.0221047 -0.230267 -0.376411 0.101873 0.214674 -0.739184 21.7248 5.00821 -4.36235 0.01 
59 1 6 0.137705 -0.0792061 0.0357123 -0.0359213 -0.249699 -0.467527 0.0260676 -0.0337283 0.0208667 21.7248 5.00821 -4.36235 0.01 
60 1 6 0.131114 -0.0849196 0.0379302 -0.0497379 -0.26913 -0.558643 0 0 0 21.7248 5.00821 -4.36235 0.01 
61 1 7 -0.0424961 0.219535 0.0107649 -0.170948 0.0630265 0.029447 0.404522 0.256301 -1.05527 -8.78629 -7.446 -10.9615 0.01 
62 1 7 -0.0403437 0.224926 0.0176424 -0.163059 0.0998605 -0.00189667 0.773574 0.347615 -1.69132 -8.78629 -7.446 -10.9615 0.01 
63 1 7 -0.0381913 0.230318 0.0245199 -0.155171 0.136694 -0.0332404 -1.93228 -0.813216 4.8921 -8.78629 -7.446 -10.9615 0.01 
64 1 7 -0.0360389 0.235709 0.0313974 -0.147282 0.173528 -0.064584 0.0207367 -0.033551 0.142616 -8.78629 -7.446 -10.9615 0.01 
65 1 7 -0.0338864 0.241101 0.0382749 -0.139394 0.210362 -0.0959277 -0.0407222 0.0447179 -0.0359298 -8.78629 -7.446 -10.9615 0.01 
66 1 7 -0.031734 0.246492 0.0451524 -0.131506 0.247196 -0.127271 -0.26643 0.260156 -0.213749 -8.78629 -7.446 -10.9615 0.01 
67 1 7 -0.0295816 0.251883 0.0520299 -0.123617 0.28403 -0.158615 -0.338388 0.28915 -0.248529 -8.78629 -7.446 -10.9615 0.01 
68 1 7 -0.0274292 0.257275 0.0589074 -0.115729 0.320864 -0.189959 -0.1805 0.134448 -0.121497 -8.78629 -7.446 -10.9615 0.01 
69 1 7 -0.0252768 0.262666 0.0657849 -0.10784 0.357698 -0.221302 0.897309 -0.554054 -0.26946 -8.78629 -7.446 -10.9615 0.01 
70 1 7 -0.0231244 0.268058 0.0726624 -0.0999521 0.394532 -0.252646 0 0 0 -8.78629 -7.446 -10.9615 0.01 
71 1 8 0.139876 -0.169052 0.0970321 0.307631 -0.382189 -0.180164 -0.531781 -1.44587 0.00704924 19.3839 8.39074 10.5341 0.01 
72 1 8 0.147467 -0.166608 0.101204 0.316886 -0.38309 -0.196477 0 0 0 19.3839 8.39074 10.5341 0.01 
73 1 8 0.155058 -0.164163 0.105376 0.32614 -0.38399 -0.212789 -0.529111 1.39635 -0.553245 19.3839 8.39074 10.5341 0.01 
74 1 8 0.162649 -0.161719 0.109547 0.335395 -0.38489 -0.229101 0 0 0 19.3839 8.39074 10.5341 0.01 
75 1 8 0.17024 -0.159275 0.113719 0.344649 -0.38579 -0.245414 0 0 0 19.3839 8.39074 10.5341 0.01 
76 1 8 0.177831 -0.15683 0.117891 0.353904 -0.38669 -0.261726 0 0 0 19.3839 8.39074 10.5341 0.01 
77 1 8 0.185422 -0.154386 0.122062 0.363159 -0.387591 -0.278039 0 0 0 19.3839 8.39074 10.5341 0.01 
78 1 8 0.193013 -0.151941 0.126234 0.372413 -0.388491 -0.294351 0.538844 -0.812529 1.00433 19.3839 8.39074 10.5341 0.01 
79 1 8 0.200604 -0.149497 0.130406 0.381668 -0.389391 -0.310663 0 0 0 19.3839 8.39074 10.5341 0.01 
80 1 8 0.208195 -0.147053 0.134577 0.390922 -0.390291 -0.326976 0 0 0 19.3839 8.39074 10.5341 0.01 
81 1 9 -0.131685 0.0378034 0.0630792 -0.0174371 -0.385307 -0.200406 0.121734 -0.208694 1.23428 5.34363 -0.363553 13.2308 0.01 
82 1 9 -0.125323 0.0378328 0.0694448 -0.0201399 -0.335144 -0.197936 0 0 0 5.34363 -0.363553 13.2308 0.01 
83 1 9 -0.118961 0.0378622 0.0758104 -0.0228427 -0.284982 -0.195466 0 0 0 5.34363 -0.363553 13.2308 0.01 
84 1 9 -0.112599 0.0378916 0.082176 -0.0255456 -0.234819 -0.192996 0 0 0 5.34363 -0.363553 13.2308 0.01 
85 1 9 -0.106236 0.0379209 0.0885416 -0.0282484 -0.184657 -0.190527 0.627658 -0.486412 -1.14747 5.34363 -0.363553 13.2308 0.01 
86 1 9 -0.099874 0.0379503 0.0949072 -0.0309512 -0.134494 -0.188057 0 0 0 5.34363 -0.363553 13.2308 0.01 
87 1 9 -0.0935118 0.0379797 0.101273 -0.033654 -0.0843317 -0.185587 0.0269965 0.126199 -0.0327849 5.34363 -0.363553 13.2308 0.01 
88 1 9 -0.0871495 0.038009 0.107638 -0.0363568 -0.0341692 -0.183117 0 0 0 5.34363 -0.363553 13.2308 0.01 
89 1 9 -0.0807872 0.0380384 0.114004 -0.0390596 0.0159933 -0.180647 0.0876719 -0.0973944 -0.144696 5.34363 -0.363553 13.2308 0.01 
90 1 9 -0.074425 0.0380678 0.12037 -0.0417625 0.0661557 -0.178177 -0.0572732 0.278759 1.18073 5.34363 -0.363553 13.2308 0.01 
91 1 10 0.066555 0.234168 0.101517 0.215146 0.484306 -0.179596 -0.0902247 0.146129 0.206996 8.23392 -11.983 -9.91399 0.01 
92 1 10 0.0608643 0.237728 0.107512 0.178603 0.491361 -0.218473 0 0 0 8.23392 -11.983 -9.91399 0.01 
93 1 10 0.0551736 0.241288 0.113507 0.14206 0.498416 -0.25735 0 0 0 8.23392 -11.983 -9.91399 0.01 
94 1 10 0.0494829 0.244848 0.119502 0.105517 0.505471 -0.296227 0 0 0 8.23392 -11.983 -9.91399 0.01 
95 1 10 0.0437922 0.248408 0.125497 0.0689742 0.512525 -0.335105 0 0 0 8.23392 -11.983 -9.91399 0.01 
96 1 10 0.0381015 0.251969 0.131492 0.0324313 0.51958 -0.373982 0 0 0 8.23392 -11.983 -9.91399 0.01 
97 1 10 0.0324107 0.255529 0.137487 -0.00411161 0.526635 -0.412859 0 0 0 8.23392 -11.983 -9.91399 0.01 
98 1 10 0.02672 0.259089 0.143482 -0.0406545 0.53369 -0.451736 0.170242 -0.0508853 0.0596539 8.23392 -11.983 -9.91399 0.01 
99 1 10 0.0210293 0.262649 0.149477 -0.0771974 0.540744 -0.490614 0 0 0 8.23392 -11.983 -9.91399 0.01 
100 1 10 0.0153386 0.26621 0.155472 -0.11374 0.547799 -0.529491 0 0 0 8.23392 -11.983 -9.91399 0.01 
101 1 11 -0.244302 -0.0832342 0.0106535 -0.190897 -0.0687442 -0.00836598 1.01046 -0.940913 -0.560221 2.15169 4.75815 -6.45118 0.01 
102 1 11 -0.243839 -0.089323 0.0172649 -0.19872 -0.0859595 -0.0236724 0 0 0 2.15169 4.75815 -6.45118 0.01 
103 1 11 -0.243375 -0.0954119 0.0238763 -0.206542 -0.103175 -0.0389788 -0.251958 0.626069 0.741095 2.15169 4.75815 -6.45118 0.01 
104 1 11 -0.242912 -0.101501 0.0304877 -0.214364 -0.12039 -0.0542852 -0.0950589 0.219994 0.72299 2.15169 4.75815 -6.45118 0.01 
105 1 11 -0.242448 -0.10759 0.0370991 -0.222186 -0.137606 -0.0695917 -0.649465 0.343627 0.329998 2.15169 4.75815 -6.45118 0.01 
106 1 11 -0.241985 -0.113679 0.0437106 -0.230009 -0.154821 -0.0848981 0 0 0 2.15169 4.75815 -6.45118 0.01 
107 1 11 -0.241521 -0.119767 0.050322 -0.237831 -0.172036 -0.100204 0.379139 0.0995974 -0.299887 2.15169 4.75815 -6.45118 0.01 
108 1 11 -0.241058 -0.125856 0.0569334 -0.245653 -0.189252 -0.115511 0.00343352 -0.396398 -0.607187 2.15169 4.75815 -6.45118 0.01 
109 1 11 -0.240595 -0.131945 0.0635448 -0.253476 -0.206467 -0.130817 0 0 0 2.15169 4.75815 -6.45118 0.01 
110 1 11 -0.240131 -0.138034 0.0701562 -0.261298 -0.223682 -0.146124 0 0 0 2.15169 4.75815 -6.45118 0.01 
111 1 12 0.118381 0.0459837 0.0518239 0.035358 -0.0567093 -0.051395 -0.277067 1.04308 1.14839 -2.31808 3.55838 1.96315 0.01 
112 1 12 0.119139 0.0495589 0.0600484 0.0576054 -0.0361552 -0.0623813 0 0 0 -2.31808 3.55838 1.96315 0.01 
113 1 12 0.119898 0.0531341 0.0682729 0.0798528 -0.0156011 -0.0733677 0 0 0 -2.31808 3.55838 1.96315 0.01 
114 1 12 0.120656 0.0567092 0.0764975 0.1021 0.0049529 -0.0843541 0 0 0 -2.31808 3.55838 1.96315 0.01 
115 1 12 0.121414 0.0602844 0.084722 0.124348 0.025507 -0.0953405 1.17587 -0.973505 1.00132 -2.31808 3.55838 1.96315 0.01 
116 1 12 0.122173 0.0638596 0.0929465 0.146595 0.046061 -0.106327 0 0 0 -2.31808 3.55838 1.96315 0.01 
117 1 12 0.122931 0.0674347 0.101171 0.168843 0.0666151 -0.117313 0 0 0 -2.31808 3.55838 1.96315 0.01 
118 1 12 0.12369 0.0710099 0.109396 0.19109 0.0871691 -0.1283 -1.18319 0.0971473 -0.365126 -2.31808 3.55838 1.96315 0.01 
119 1 12 0.124448 0.0745851 0.11762 0.213337 0.107723 -0.139286 0 0 0 -2.31808 3.55838 1.96315 0.01 
120 1 12 0.125207 0.0781602 0.125845 0.235585 0.128277 -0.150272 0.406104 0.281307 -0.507416 -2.31808 3.55838 1.96315 0.01 
121 1 13 0.00118256 0.283784 0.0707825 -0.0679879 0.306231 -0.122321 -0.626356 -1.08843 2.58414 -0.235648 -0.178255 2.25156 0.01 
122 1 13 -0.00257354 0.278824 0.0772853 -0.0579786 0.299307 -0.121822 0 0 0 -0.235648 -0.178255 2.25156 0.01 
123 1 13 -0.00632963 0.273864 0.0837881 -0.0479693 0.292382 -0.121323 -0.420084 -0.156364 -0.820716 -0.235648 -0.178255 2.25156 0.01 
124 1 13 -0.0100857 0.268903 0.090291 -0.03796 0.285457 -0.120823 0 0 0 -0.235648 -0.178255 2.25156 0.01 
125 1 13 -0.0138418 0.263943 0.0967938 -0.0279507 0.278533 -0.120324 0 0 0 -0.235648 -0.178255 2.25156 0.01 
126 1 13 -0.0175979 0.258983 0.103297 -0.0179414 0.271608 -0.119824 0 0 0 -0.235648 -0.178255 2.25156 0.01 
127 1 13 -0.021354 0.254022 0.1098 -0.00793206 0.264683 -0.119325 0 0 0 -0.235648 -0.178255 2.25156 0.01 
128 1 13 -0.0251101 0.249062 0.116302 0.00207725 0.257759 -0.118826 0 0 0 -0.235648 -0.178255 2.25156 0.01 
129 1 13 -0.0288662 0.244102 0.122805 0.0120866 0.250834 -0.118326 0 0 0 -0.235648 -0.178255 2.25156 0.01 
130 1 13 -0.0326223 0.239141 0.129308 0.0220959 0.243909 -0.117827 0 0 0 -0.235648 -0.178255 2.25156 0.01 
131 1 14 -0.0476307 0.127862 0.0100081 -0.00349301 0.0183809 0.0537875 0.65835 0.759028 -2.34891 -0.846368 3.8042 7.80533 0.01 
132 1 14 -0.0462183 0.133317 0.0170264 -0.0193661 0.0353451 0.0437982 1.01258 -0.000997888 -1.51734 -0.846368 3.8042 7.80533 0.01 
133 1 14 -0.0448059 0.138771 0.0240447 -0.0352393 0.0523093 0.0338089 -2.2716 -2.96629 8.49262 -0.846368 3.8042 7.80533 0.01 
134 1 14 -0.0433935 0.144225 0.031063 -0.0511124 0.0692735 0.0238196 -0.830041 1.14924 -1.99172 -0.846368 3.8042 7.80533 0.01 
135 1 14 -0.0419811 0.149679 0.0380813 -0.0669856 0.0862377 0.0138303 0.022571 0.309065 -0.235503 -0.846368 3.8042 7.80533 0.01 
136 1 14 -0.0405688 0.155134 0.0450996 -0.0828587 0.103202 0.00384105 0 0 0 -0.846368 3.8042 7.80533 0.01 
137 1 14 -0.0391564 0.160588 0.0521179 -0.0987318 0.120166 -0.00614824 0 0 0 -0.846368 3.8042 7.80533 0.01 
138 1 14 -0.037744 0.166042 0.0591362 -0.114605 0.13713 -0.0161375 0 0 0 -0.846368 3.8042 7.80533 0.01 
139 1 14 -0.0363316 0.171496 0.0661545 -0.130478 0.154094 -0.0261268 0 0 0 -0.846368 3.8042 7.80533 0.01 
140 1 14 -0.0349192 0.176951 0.0731728 -0.146351 0.171059 -0.0361161 0.422273 -0.0760754 -0.73655 -0.846368 3.8042 7.80533 0.01 
141 1 15 -0.00832741 -0.0594182 0.00983844 -0.00803454 -0.00764058 -0.0223998 -0.499038 -0.391554 2.16141 1.47296 -1.87321 1.25044 0.01 
142 1 15 -0.0122159 -0.0624519 0.0173668 -0.0183433 -0.0235919 -0.0341523 0.0237401 -0.132513 -0.0593288 1.47296 -1.87321 1.25044 0.01 
143 1 15 -0.0161044 -0.0654856 0.0248952 -0.028652 -0.0395432 -0.0459048 0.0191204 -0.130259 -0.091106 1.47296 -1.87321 1.25044 0.01 
144 1 15 -0.0199929 -0.0685193 0.0324235 -0.0389607 -0.0554945 -0.0576573 -0.022608 -0.109637 -0.123911 1.47296 -1.87321 1.25044 0.01 
145 1 15 -0.0238814 -0.071553 0.0399519 -0.0492695 -0.0714458 -0.0694098 -0.0696946 -0.0984733 -0.11569 1.47296 -1.87321 1.25044 0.01 
146 1 15 -0.0277699 -0.0745867 0.0474802 -0.0595782 -0.0873971 -0.0811623 -0.0857001 -0.0948639 -0.0963699 1.47296 -1.87321 1.25044 0.01 
147 1 15 -0.0316584 -0.0776204 0.0550086 -0.069887 -0.103348 -0.0929148 -0.0840104 -0.08805 -0.0797901 1.47296 -1.87321 1.25044 0.01 
148 1 15 -0.0355469 -0.0806541 0.062537 -0.0801957 -0.1193 -0.104667 0.609688 0.139544 0.850405 1.47296 -1.87321 1.25044 0.01 
149 1 15 -0.0394354 -0.0836878 0.0700653 -0.0905044 -0.135251 -0.11642 -0.84111 0.428262 -0.758054 1.47296 -1.87321 1.25044 0.01 
150 1 15 -0.043324 -0.0867215 0.0775937 -0.100813 -0.151202 -0.128172 0.983693 0.226157 -1.30372 1.47296 -1.87321 1.25044 0.01 
151 1 16 -0.0422932 0.178839 0.0129234 -0.0780778 0.12822 -0.00382963 -0.42262 1.08449 -1.76903 -0.096681 0.765575 1.95586 0.01 
152 1 16 -0.0405107 0.18527 0.0189618 -0.0860334 0.13229 -0.00581606 0.499599 -0.556721 0.89531 -0.096681 0.765575 1.95586 0.01 
153 1 16 -0.0387281 0.191701 0.0250003 -0.0939889 0.13636 -0.00780248 -0.00734973 -0.66515 0.824232 -0.096681 0.765575 1.95586 0.01 
154 1 16 -0.0369456 0.198132 0.0310387 -0.101945 0.14043 -0.00978891 -0.15207 -0.167869 0.765641 -0.096681 0.765575 1.95586 0.01 
155 1 16 -0.0351631 0.204564 0.0370772 -0.1099 0.1445 -0.0117753 -0.121979 -0.161903 0.586972 -0.096681 0.765575 1.95586 0.01 
156 1 16 -0.0333806 0.210995 0.0431157 -0.117856 0.14857 -0.0137618 -0.148227 0.139546 -0.0791864 -0.096681 0.765575 1.95586 0.01 
157 1 16 -0.0315981 0.217426 0.0491541 -0.125811 0.152641 -0.0157482 0 0 0 -0.096681 0.765575 1.95586 0.01 
158 1 16 -0.0298155 0.223857 0.0551926 -0.133767 0.156711 -0.0177346 0 0 0 -0.096681 0.765575 1.95586 0.01 
159 1 16 -0.028033 0.230288 0.061231 -0.141722 0.160781 -0.019721 0 0 0 -0.096681 0.765575 1.95586 0.01 
160 1 16 -0.0262505 0.236719 0.0672695 -0.149678 0.164851 -0.0217075 0.1125 -0.0353636 -0.285145 -0.096681 0.765575 1.95586 0.01 
161 1 17 0.0746222 0.0895019 0.00978212 0.0120781 0.00794583 -0.00392316 0.742794 -0.273298 2.78073 -0.666427 1.56294 -1.05651 0.01 
162 1 17 0.0781727 0.087689 0.017851 0.022774 0.00957205 -0.00826418 0 0 0 -0.666427 1.56294 -1.05651 0.01 
163 1 17 0.0817232 0.0858761 0.02592 0.0334698 0.0111983 -0.0126052 0 0 0 -0.666427 1.56294 -1.05651 0.01 
164 1 17 0.0852736 0.0840632 0.0339889 0.0441657 0.0128245 -0.0169462 0 0 0 -0.666427 1.56294 -1.05651 0.01 
165 1 17 0.0888241 0.0822503 0.0420578 0.0548616 0.0144507 -0.0212872 0 0 0 -0.666427 1.56294 -1.05651 0.01 
166 1 17 0.0923746 0.0804374 0.0501267 0.0655575 0.0160769 -0.0256282 0 0 0 -0.666427 1.56294 -1.05651 0.01 
167 1 17 0.0959251 0.0786245 0.0581957 0.0762534 0.0177032 -0.0299693 0.325165 -0.293584 -0.500605 -0.666427 1.56294 -1.05651 0.01 
168 1 17 0.0994755 0.0768116 0.0662646 0.0869493 0.0193294 -0.0343103 0.339683 -0.276886 -0.488847 -0.666427 1.56294 -1.05651 0.01 
169 1 17 0.103026 0.0749987 0.0743335 0.0976452 0.0209556 -0.0386513 0 0 0 -0.666427 1.56294 -1.05651 0.01 
170 1 17 0.106577 0.0731858 0.0824024 0.108341 0.0225818 -0.0429923 -1.17587 0.973505 -1.00132 -0.666427 1.56294 -1.05651 0.01 
171 1 18 -0.32661 -0.0438027 0.0107335 -0.0225937 0.0212867 0.111765 0 0 0 -3.36282 -5.6456 -3.56547 0.01 
172 1 18 -0.323472 -0.0416308 0.0188841 -0.0608654 0.0375062 0.122179 0 0 0 -3.36282 -5.6456 -3.56547 0.01 
173 1 18 -0.320334 -0.0394589 0.0270348 -0.0991371 0.0537258 0.132594 0 0 0 -3.36282 -5.6456 -3.56547 0.01 
174 1 18 -0.317195 -0.037287 0.0351855 -0.137409 0.0699453 0.143008 0 0 0 -3.36282 -5.6456 -3.56547 0.01 
175 1 18 -0.314057 -0.0351152 0.0433362 -0.175681 0.0861649 0.153422 0 0 0 -3.36282 -5.6456 -3.56547 0.01 
176 1 18 -0.310918 -0.0329433 0.0514869 -0.213952 0.102384 0.163836 0 0 0 -3.36282 -5.6456 -3.56547 0.01 
177 1 18 -0.30778 -0.0307714 0.0596376 -0.252224 0.118604 0.174251 0 0 0 -3.36282 -5.6456 -3.56547 0.01 
178 1 18 -0.304642 -0.0285995 0.0677882 -0.290496 0.134824 0.184665 0 0 0 -3.36282 -5.6456 -3.56547 0.01 
179 1 18 -0.301503 -0.0264276 0.0759389 -0.328767 0.151043 0.195079 0 0 0 -3.36282 -5.6456 -3.56547 0.01 
180 1 18 -0.298365 -0.0242558 0.0840896 -0.367039 0.167263 0.205493 0 0 0 -3.36282 -5.6456 -3.56547 0.01 
181 1 19 0.0169813 0.213252 0.0888602 -0.0762705 0.344609 -0.349806 0.141112 -0.000712769 0.009273 -0.215078 -5.41543 5.87565 0.01 
182 1 19 0.0168604 0.206215 0.0944691 -0.0652954 0.345104 -0.348948 -0.239049 0.0598049 0.480046 -0.215078 -5.41543 5.87565 0.01 
183 1 19 0.0167395 0.199177 0.100078 -0.0543202 0.3456 -0.348089 0 0 0 -0.215078 -5.41543 5.87565 0.01 
184 1 19 0.0166186 0.19214 0.105687 -0.0433451 0.346096 -0.34723 0 0 0 -0.215078 -5.41543 5.87565 0.01 
185 1 19 0.0164977 0.185103 0.111296 -0.03237 0.346592 -0.346371 0 0 0 -0.215078 -5.41543 5.87565 0.01 
186 1 19 0.0163768 0.178065 0.116905 -0.0213948 0.347088 -0.345512 0 0 0 -0.215078 -5.41543 5.87565 0.01 
187 1 19 0.0162559 0.171028 0.122514 -0.0104197 0.347584 -0.344653 -2.07568 -1.76352 -4.3916 -0.215078 -5.41543 5.87565 0.01 
188 1 19 0.016135 0.16399 0.128122 0.00055544 0.34808 -0.343794 0 0 0 -0.215078 -5.41543 5.87565 0.01 
189 1 19 0.0160141 0.156953 0.133731 0.0115306 0.348576 -0.342935 0 0 0 -0.215078 -5.41543 5.87565 0.01 
190 1 19 0.0158932 0.149915 0.13934 0.0225057 0.349072 -0.342076 0.761074 0.355121 1.78745 -0.215078 -5.41543 5.87565 0.01 
191 1 20 -0.0072794 0.193061 0.0116339 0.121025 -0.0151678 0.117289 0 0 0 -5.92849 -7.57506 -1.78642 0.01 
192 1 20 -0.00521033 0.200102 0.016844 0.0941357 0.0120242 0.0912206 0 0 0 -5.92849 -7.57506 -1.78642 0.01 
193 1 20 -0.00314125 0.207143 0.0220542 0.0672465 0.0392162 0.0651524 -0.495072 -0.132727 -0.115668 -5.92849 -7.57506 -1.78642 0.01 
194 1 20 -0.00107218 0.214184 0.0272643 0.0403573 0.0664082 0.0390842 -0.254118 -0.0307842 0.117866 -5.92849 -7.57506 -1.78642 0.01 
195 1 20 0.000996889 0.221224 0.0324744 0.0134681 0.0936002 0.0130159 -0.267216 0.00751842 0.0506614 -5.92849 -7.57506 -1.78642 0.01 
196 1 20 0.00306596 0.228265 0.0376846 -0.0134211 0.120792 -0.0130523 -0.258897 0.000420291 0.0480436 -5.92849 -7.57506 -1.78642 0.01 
197 1 20 0.00513503 0.235306 0.0428947 -0.0403102 0.147984 -0.0391205 -0.239596 -0.00814094 0.0442021 -5.92849 -7.57506 -1.78642 0.01 
198 1 20 0.0072041 0.242347 0.0481048 -0.0671994 0.175176 -0.0651887 -0.458116 0.158004 0.133178 -5.92849 -7.57506 -1.78642 0.01 
199 1 20 0.00927318 0.249388 0.053315 -0.0940886 0.202368 -0.091257 0.188786 0.178616 -0.124685 -5.92849 -7.57506 -1.78642 0.01 
200 1 20 0.0113422 0.256429 0.0585251 -0.120978 0.22956 -0.117325 0.347416 0.0357067 0.123415 -5.92849 -7.57506 -1.78642 0.01 
201 1 21 0.0125124 0.0055236 0.0107705 -0.0136812 -0.0645743 -0.0266047 0.216789 0.662443 0.362938 -2.88266 0.843358 -1.69654 0.01 
202 1 21 0.010427 0.0118522 0.0168203 0.0021576 -0.0435968 -0.0430892 0 0 0 -2.88266 0.843358 -1.69654 0.01 
203 1 21 0.00834156 0.0181808 0.0228701 0.0179964 -0.0226193 -0.0595736 -0.331471 -0.435762 1.25189 -2.88266 0.843358 -1.69654 0.01 
204 1 21 0.00625614 0.0245094 0.0289199 0.0338352 -0.00164184 -0.076058 -0.926069 -0.269341 -0.0285372 -2.88266 0.843358 -1.69654 0.01 
205 1 21 0.00417073 0.030838 0.0349697 0.0496741 0.0193356 -0.0925424 0 0 0 -2.88266 0.843358 -1.69654 0.01 
206 1 21 0.00208532 0.0371666 0.0410195 0.0655129 0.0403131 -0.109027 0 0 0 -2.88266 0.843358 -1.69654 0.01 
207 1 21 -9.59542e-08 0.0434951 0.0470693 0.0813517 0.0612906 -0.125511 0.936422 0.445243 0.132955 -2.88266 0.843358 -1.69654 0.01 
208 1 21 -0.00208551 0.0498237 0.053119 0.0971905 0.0822681 -0.141996 0.217036 0.0149533 0.0477326 -2.88266 0.843358 -1.69654 0.01 
209 1 21 -0.00417092 0.0561523 0.0591688 0.113029 0.103246 -0.15848 0.52581 0.0801677 0.255311 -2.88266 0.843358 -1.69654 0.01 
210 1 21 -0.00625634 0.0624809 0.0652186 0.128868 0.124223 -0.174965 -0.643307 -0.725645 -0.603433 -2.88266 0.843358 -1.69654 0.01 
211 1 22 0.017212 0.268373 0.0740515 -0.048641 0.511491 -0.244934 0 0 0 1.52682 -1.4357 2.58665 0.01 
212 1 22 0.0138156 0.262393 0.0798573 -0.041509 0.493841 -0.25894 0 0 0 1.52682 -1.4357 2.58665 0.01 
213 1 22 0.0104192 0.256413 0.0856631 -0.0343769 0.476191 -0.272946 0 0 0 1.52682 -1.4357 2.58665 0.01 
214 1 22 0.00702284 0.250433 0.0914689 -0.0272448 0.458542 -0.286952 0 0 0 1.52682 -1.4357 2.58665 0.01 
215 1 22 0.00362644 0.244454 0.0972747 -0.0201128 0.440892 -0.300959 0 0 0 1.52682 -1.4357 2.58665 0.01 
216 1 22 0.000230034 0.238474 0.103081 -0.0129807 0.423242 -0.314965 0 0 0 1.52682 -1.4357 2.58665 0.01 
217 1 22 -0.00316637 0.232494 0.108886 -0.00584862 0.405593 -0.328971 0.251662 0.135769 0.408832 1.52682 -1.4357 2.58665 0.01 
218 1 22 -0.00656277 0.226514 0.114692 0.00128345 0.387943 -0.342977 0 0 0 1.52682 -1.4357 2.58665 0.01 
219 1 22 -0.00995918 0.220535 0.120498 0.00841552 0.370293 -0.356983 0 0 0 1.52682 -1.4357 2.58665 0.01 
220 1 22 -0.0133556 0.214555 0.126304 0.0155476 0.352643 -0.370989 0 0 0 1.52682 -1.4357 2.58665 0.01 
221 1 23 0.258546 0.0524865 0.088133 0.458072 0.0661517 -0.459218 0 0 0 4.38329 -4.39029 0.171178 0.01 
222 1 23 0.252933 0.057138 0.0934109 0.434104 0.0420565 -0.463473 0 0 0 4.38329 -4.39029 0.171178 0.01 
223 1 23 0.24732 0.0617894 0.0986887 0.410137 0.0179612 -0.467728 0 0 0 4.38329 -4.39029 0.171178 0.01 
224 1 23 0.241706 0.0664408 0.103967 0.386169 -0.00613403 -0.471983 0 0 0 4.38329 -4.39029 0.171178 0.01 
225 1 23 0.236093 0.0710922 0.109244 0.362201 -0.0302293 -0.476238 0 0 0 4.38329 -4.39029 0.171178 0.01 
226 1 23 0.23048 0.0757437 0.114522 0.338234 -0.0543245 -0.480493 0 0 0 4.38329 -4.39029 0.171178 0.01 
227 1 23 0.224867 0.0803951 0.1198 0.314266 -0.0784198 -0.484749 0 0 0 4.38329 -4.39029 0.171178 0.01 
228 1 23 0.219253 0.0850465 0.125078 0.290299 -0.102515 -0.489004 0 0 0 4.38329 -4.39029 0.171178 0.01 
229 1 23 0.21364 0.0896979 0.130356 0.266331 -0.12661 -0.493259 0 0 0 4.38329 -4.39029 0.171178 0.01 
230 1 23 0.208027 0.0943494 0.135634 0.242364 -0.150706 -0.497514 0 0 0 4.38329 -4.39029 0.171178 0.01 
231 1 24 0.172066 0.0132268 0.00997938 0.0957259 -0.192596 0.0286698 -0.0524926 0.137555 -0.294462 2.26815 3.56875 6.56643 0.01 
232 1 24 0.179168 0.0128419 0.015494 0.117934 -0.158468 0.00245089 0 0 0 2.26815 3.56875 6.56643 0.01 
233 1 24 0.186271 0.012457 0.0210086 0.140142 -0.12434 -0.0237681 0 0 0 2.26815 3.56875 6.56643 0.01 
234 1 24 0.193373 0.012072 0.0265232 0.16235 -0.0902122 -0.049987 0 0 0 2.26815 3.56875 6.56643 0.01 
235 1 24 0.200475 0.0116871 0.0320379 0.184558 -0.0560844 -0.076206 0 0 0 2.26815 3.56875 6.56643 0.01 
236 1 24 0.207577 0.0113022 0.0375525 0.206766 -0.0219565 -0.102425 0 0 0 2.26815 3.56875 6.56643 0.01 
237 1 24 0.214679 0.0109172 0.0430671 0.228973 0.0121714 -0.128644 0.0328858 0.0266084 -0.131096 2.26815 3.56875 6.56643 0.01 
238 1 24 0.221781 0.0105323 0.0485817 0.251181 0.0462993 -0.154863 -0.98024 1.00746 1.84959 2.26815 3.56875 6.56643 0.01 
239 1 24 0.228884 0.0101474 0.0540963 0.273389 0.0804272 -0.181082 -1.24896 0.195171 2.88855 2.26815 3.56875 6.56643 0.01 
240 1 24 0.235986 0.00976244 0.059611 0.295597 0.114555 -0.207301 1.77611 -0.167823 -4.14017 2.26815 3.56875 6.56643 0.01 
241 1 25 0.142157 -0.208473 0.0666436 0.11128 -0.32478 -0.481529 0 0 0 6.61976 12.8733 16.6277 0.01 
242 1 25 0.143896 -0.204128 0.074331 0.13799 -0.346763 -0.475144 0 0 0 6.61976 12.8733 16.6277 0.01 
243 1 25 0.145634 -0.199783 0.0820184 0.1647 -0.368746 -0.468758 0 0 0 6.61976 12.8733 16.6277 0.01 
244 1 25 0.147373 -0.195438 0.0897058 0.19141 -0.390729 -0.462372 -0.0390016 0.0407959 0.00953899 6.61976 12.8733 16.6277 0.01 
245 1 25 0.149111 -0.191092 0.0973932 0.21812 -0.412712 -0.455986 -0.340538 0.423323 0.122478 6.61976 12.8733 16.6277 0.01 
246 1 25 0.150849 -0.186747 0.105081 0.24483 -0.434695 -0.4496 0 0 0 6.61976 12.8733 16.6277 0.01 
247 1 25 0.152588 -0.182402 0.112768 0.27154 -0.456678 -0.443215 0.529111 -1.39635 0.553245 6.61976 12.8733 16.6277 0.01 
248 1 25 0.154326 -0.178056 0.120455 0.29825 -0.478661 -0.436829 0 0 0 6.61976 12.8733 16.6277 0.01 
249 1 25 0.156065 -0.173711 0.128143 0.32496 -0.500644 -0.430443 0 0 0 6.61976 12.8733 16.6277 0.01 
250 1 25 0.157803 -0.169366 0.13583 0.35167 -0.522628 -0.424057 0 0 0 6.61976 12.8733 16.6277 0.01 
251 1 26 -0.00101083 -0.17353 0.00983523 0.010147 -0.0700902 -0.00467533 -0.54445 0.760719 1.87096 1.45123 -0.427586 1.82942 0.01 
252 1 26 -0.000684658 -0.180313 0.0157416 0.0200304 -0.0780649 -0.0143794 -0.171664 0.0504464 0.124371 1.45123 -0.427586 1.82942 0.01 
253 1 26 -0.000358488 -0.187096 0.021648 0.0299137 -0.0860397 -0.0240835 -0.794939 -0.212282 0.391377 1.45123 -0.427586 1.82942 0.01 
254 1 26 -3.2319e-05 -0.193879 0.0275544 0.0397971 -0.0940145 -0.0337876 0.53341 0.429477 0.0693246 1.45123 -0.427586 1.82942 0.01 
255 1 26 0.00029385 -0.200662 0.0334608 0.0496805 -0.101989 -0.0434917 0.464041 -1.3701 -3.58946 1.45123 -0.427586 1.82942 0.01 