ITEM: TIMESTEP
16000
ITEM: NUMBER OF ATOMS
6300
ITEM: BOX BOUNDS mm mm mm
-0.3 0.309169
-0.3 0.3
0 0.5
ITEM: ATOMS id type mol x y z vx vy vz fx fy fz omegax omegay omegaz radius 
1 1 1 -0.115957 -0.121538 0.101136 -0.0271983 0.154806 -0.0184642 0.0432888 -0.233453 1.98964 3.16867 1.16656 -5.32988 0.01 
2 1 1 -0.116416 -0.121605 0.110124 -0.017067 0.128769 -0.0181397 0 0 0 3.16867 1.16656 -5.32988 0.01 
3 1 1 -0.116874 -0.121671 0.119112 -0.00693563 0.102732 -0.0178152 0 0 0 3.16867 1.16656 -5.32988 0.01 
4 1 1 -0.117333 -0.121738 0.1281 0.00319569 0.0766952 -0.0174907 0 0 0 3.16867 1.16656 -5.32988 0.01 
5 1 1 -0.117791 -0.121804 0.137088 0.013327 0.0506584 -0.0171663 0 0 0 3.16867 1.16656 -5.32988 0.01 
6 1 1 -0.118249 -0.12187 0.146076 0.0234583 0.0246216 -0.0168418 0 0 0 3.16867 1.16656 -5.32988 0.01 
7 1 1 -0.118708 -0.121937 0.155064 0.0335897 -0.00141523 -0.0165173 0 0 0 3.16867 1.16656 -5.32988 0.01 
8 1 1 -0.119166 -0.122003 0.164053 0.043721 -0.027452 -0.0161928 0 0 0 3.16867 1.16656 -5.32988 0.01 
9 1 1 -0.119625 -0.122069 0.173041 0.0538523 -0.0534889 -0.0158684 0 0 0 3.16867 1.16656 -5.32988 0.01 
10 1 1 -0.120083 -0.122136 0.182029 0.0639836 -0.0795257 -0.0155439 0.498297 -0.209667 -0.350582 3.16867 1.16656 -5.32988 0.01 
11 1 2 -0.031311 -0.107966 0.0492601 0.061681 -0.134621 -0.303525 0.204463 0.200519 0.0521124 2.26644 1.37175 -3.70008 0.01 
12 1 2 -0.0322448 -0.107854 0.0582108 0.0743719 -0.151452 -0.301991 0 0 0 2.26644 1.37175 -3.70008 0.01 
13 1 2 -0.0331786 -0.107743 0.0671616 0.0870627 -0.168283 -0.300458 0 0 0 2.26644 1.37175 -3.70008 0.01 
14 1 2 -0.0341124 -0.107631 0.0761123 0.0997536 -0.185115 -0.298924 0 0 0 2.26644 1.37175 -3.70008 0.01 
15 1 2 -0.0350462 -0.10752 0.085063 0.112444 -0.201946 -0.29739 0 0 0 2.26644 1.37175 -3.70008 0.01 
16 1 2 -0.03598 -0.107408 0.0940138 0.125135 -0.218777 -0.295856 2.48963 -1.78172 2.4218 2.26644 1.37175 -3.70008 0.01 
17 1 2 -0.0369138 -0.107297 0.102964 0.137826 -0.235608 -0.294323 0 0 0 2.26644 1.37175 -3.70008 0.01 
18 1 2 -0.0378477 -0.107185 0.111915 0.150517 -0.252439 -0.292789 0 0 0 2.26644 1.37175 -3.70008 0.01 
19 1 2 -0.0387815 -0.107074 0.120866 0.163208 -0.26927 -0.291255 0 0 0 2.26644 1.37175 -3.70008 0.01 
20 1 2 -0.0397153 -0.106962 0.129817 0.175899 -0.286101 -0.289721 -0.84577 1.75535 -0.986174 2.26644 1.37175 -3.70008 0.01 
21 1 3 -0.0269477 -0.0296593 0.0124208 0.289458 -0.171698 -1.34237 0 0 0 7.9361 1.01394 -14.7411 0.01 
22 1 3 -0.0293658 -0.0324085 0.0206424 0.257269 -0.201301 -1.36174 0 0 0 7.9361 1.01394 -14.7411 0.01 
23 1 3 -0.0317838 -0.0351577 0.0288641 0.225079 -0.230905 -1.3811 0 0 0 7.9361 1.01394 -14.7411 0.01 
24 1 3 -0.0342018 -0.0379069 0.0370857 0.192889 -0.260508 -1.40047 0 0 0 7.9361 1.01394 -14.7411 0.01 
25 1 3 -0.0366198 -0.0406561 0.0453073 0.160699 -0.290111 -1.41983 0 0 0 7.9361 1.01394 -14.7411 0.01 
26 1 3 -0.0390379 -0.0434053 0.0535289 0.128509 -0.319715 -1.4392 0 0 0 7.9361 1.01394 -14.7411 0.01 
27 1 3 -0.0414559 -0.0461545 0.0617505 0.0963193 -0.349318 -1.45857 0 0 0 7.9361 1.01394 -14.7411 0.01 
28 1 3 -0.0438739 -0.0489037 0.0699722 0.0641295 -0.378922 -1.47793 0 0 0 7.9361 1.01394 -14.7411 0.01 
29 1 3 -0.0462919 -0.0516529 0.0781938 0.0319396 -0.408525 -1.4973 0 0 0 7.9361 1.01394 -14.7411 0.01 
30 1 3 -0.04871 -0.0544021 0.0864154 -0.000250229 -0.438128 -1.51667 0 0 0 7.9361 1.01394 -14.7411 0.01 
31 1 4 -0.0888855 0.109471 0.0105421 0.154307 0.166231 0.00463391 0 0 0 -0.487488 -2.37094 -0.787532 0.01 
32 1 4 -0.0884744 0.110683 0.0194506 0.13414 0.17025 0.00501776 0 0 0 -0.487488 -2.37094 -0.787532 0.01 
33 1 4 -0.0880632 0.111895 0.0283591 0.113973 0.174269 0.00540162 0 0 0 -0.487488 -2.37094 -0.787532 0.01 
34 1 4 -0.0876521 0.113107 0.0372677 0.0938061 0.178288 0.00578548 0 0 0 -0.487488 -2.37094 -0.787532 0.01 
35 1 4 -0.087241 0.114319 0.0461762 0.0736392 0.182307 0.00616934 0 0 0 -0.487488 -2.37094 -0.787532 0.01 
36 1 4 -0.0868298 0.115531 0.0550847 0.0534723 0.186326 0.0065532 0 0 0 -0.487488 -2.37094 -0.787532 0.01 
37 1 4 -0.0864187 0.116743 0.0639932 0.0333054 0.190345 0.00693706 0 0 0 -0.487488 -2.37094 -0.787532 0.01 
38 1 4 -0.0860076 0.117956 0.0729017 0.0131385 0.194364 0.00732092 0 0 0 -0.487488 -2.37094 -0.787532 0.01 
39 1 4 -0.0855965 0.119168 0.0818102 -0.00702845 0.198383 0.00770478 0 0 0 -0.487488 -2.37094 -0.787532 0.01 
40 1 4 -0.0851853 0.12038 0.0907188 -0.0271954 0.202402 0.00808864 -1.13904 -0.126073 -0.848349 -0.487488 -2.37094 -0.787532 0.01 
41 1 5 0.0767774 -0.137071 0.0203612 0.0269016 -0.0488305 -0.928291 0 0 0 -1.23015 -1.99558 -5.05083 0.01 
42 1 5 0.0773846 -0.135703 0.0292359 0.0161023 -0.0409804 -0.928762 0 0 0 -1.23015 -1.99558 -5.05083 0.01 
43 1 5 0.0779918 -0.134335 0.0381105 0.00530295 -0.0331302 -0.929233 0 0 0 -1.23015 -1.99558 -5.05083 0.01 
44 1 5 0.078599 -0.132967 0.0469851 -0.00549638 -0.02528 -0.929705 0 0 0 -1.23015 -1.99558 -5.05083 0.01 
45 1 5 0.0792062 -0.131598 0.0558598 -0.0162957 -0.0174298 -0.930176 0 0 0 -1.23015 -1.99558 -5.05083 0.01 
46 1 5 0.0798134 -0.13023 0.0647344 -0.027095 -0.00957956 -0.930648 0 0 0 -1.23015 -1.99558 -5.05083 0.01 
47 1 5 0.0804206 -0.128862 0.0736091 -0.0378944 -0.00172937 -0.931119 0 0 0 -1.23015 -1.99558 -5.05083 0.01 
48 1 5 0.0810279 -0.127494 0.0824837 -0.0486937 0.00612083 -0.93159 0 0 0 -1.23015 -1.99558 -5.05083 0.01 
49 1 5 0.0816351 -0.126125 0.0913583 -0.059493 0.013971 -0.932062 0 0 0 -1.23015 -1.99558 -5.05083 0.01 
50 1 5 0.0822423 -0.124757 0.100233 -0.0702923 0.0218212 -0.932533 0 0 0 -1.23015 -1.99558 -5.05083 0.01 
51 1 6 0.174983 -0.0350611 0.0106454 -0.0609164 -0.11 -0.0231516 0 0 0 7.94185 3.42847 -29.3946 0.01 
52 1 6 0.172753 -0.0364293 0.0192567 -0.0716102 -0.112833 -0.0263713 0 0 0 7.94185 3.42847 -29.3946 0.01 
53 1 6 0.170523 -0.0377975 0.027868 -0.082304 -0.115666 -0.029591 0 0 0 7.94185 3.42847 -29.3946 0.01 
54 1 6 0.168292 -0.0391657 0.0364792 -0.0929978 -0.118499 -0.0328106 0 0 0 7.94185 3.42847 -29.3946 0.01 
55 1 6 0.166062 -0.0405339 0.0450905 -0.103692 -0.121332 -0.0360303 0 0 0 7.94185 3.42847 -29.3946 0.01 
56 1 6 0.163832 -0.0419021 0.0537018 -0.114385 -0.124165 -0.03925 0 0 0 7.94185 3.42847 -29.3946 0.01 
57 1 6 0.161602 -0.0432702 0.0623131 -0.125079 -0.126998 -0.0424697 0 0 0 7.94185 3.42847 -29.3946 0.01 
58 1 6 0.159371 -0.0446384 0.0709244 -0.135773 -0.129831 -0.0456894 0 0 0 7.94185 3.42847 -29.3946 0.01 
59 1 6 0.157141 -0.0460066 0.0795356 -0.146467 -0.132664 -0.0489091 0 0 0 7.94185 3.42847 -29.3946 0.01 
60 1 6 0.154911 -0.0473748 0.0881469 -0.15716 -0.135497 -0.0521288 0 0 0 7.94185 3.42847 -29.3946 0.01 
61 1 7 -0.0376281 0.217627 0.0114551 -0.040668 -0.0169936 -0.00613098 0 0 0 1.94222 -3.35983 16.3808 0.01 
62 1 7 -0.0381021 0.216529 0.0203754 -0.0526599 -0.0420834 -0.00985526 0 0 0 1.94222 -3.35983 16.3808 0.01 
63 1 7 -0.0385761 0.215432 0.0292956 -0.0646519 -0.0671732 -0.0135795 0 0 0 1.94222 -3.35983 16.3808 0.01 
64 1 7 -0.0390501 0.214334 0.0382158 -0.0766438 -0.0922631 -0.0173038 0 0 0 1.94222 -3.35983 16.3808 0.01 
65 1 7 -0.0395241 0.213237 0.0471361 -0.0886357 -0.117353 -0.0210281 0 0 0 1.94222 -3.35983 16.3808 0.01 
66 1 7 -0.0399981 0.212139 0.0560563 -0.100628 -0.142443 -0.0247524 -0.312634 0.0227017 0.0336973 1.94222 -3.35983 16.3808 0.01 
67 1 7 -0.0404722 0.211042 0.0649766 -0.11262 -0.167533 -0.0284767 -0.980948 0.613235 -0.156638 1.94222 -3.35983 16.3808 0.01 
68 1 7 -0.0409462 0.209944 0.0738968 -0.124612 -0.192622 -0.032201 -0.17 0.287535 -0.0200521 1.94222 -3.35983 16.3808 0.01 
69 1 7 -0.0414202 0.208846 0.0828171 -0.136603 -0.217712 -0.0359252 0 0 0 1.94222 -3.35983 16.3808 0.01 
70 1 7 -0.0418942 0.207749 0.0917373 -0.148595 -0.242802 -0.0396495 0 0 0 1.94222 -3.35983 16.3808 0.01 
71 1 8 0.127885 -0.132597 0.108862 0.127131 -0.0247067 -0.0365013 0.117402 0.0276145 0.698574 -1.84045 -0.466181 -8.94532 0.01 
72 1 8 0.128888 -0.132546 0.117805 0.123413 -0.0172184 -0.0361267 0 0 0 -1.84045 -0.466181 -8.94532 0.01 
73 1 8 0.129891 -0.132496 0.126749 0.119696 -0.00973021 -0.035752 0 0 0 -1.84045 -0.466181 -8.94532 0.01 
74 1 8 0.130894 -0.132445 0.135693 0.115978 -0.00224197 -0.0353774 0 0 0 -1.84045 -0.466181 -8.94532 0.01 
75 1 8 0.131897 -0.132395 0.144637 0.11226 0.00524627 -0.0350027 0 0 0 -1.84045 -0.466181 -8.94532 0.01 
76 1 8 0.1329 -0.132344 0.153581 0.108543 0.0127345 -0.0346281 0 0 0 -1.84045 -0.466181 -8.94532 0.01 
77 1 8 0.133903 -0.132294 0.162524 0.104825 0.0202227 -0.0342535 0 0 0 -1.84045 -0.466181 -8.94532 0.01 
78 1 8 0.134906 -0.132243 0.171468 0.101108 0.027711 -0.0338788 0 0 0 -1.84045 -0.466181 -8.94532 0.01 
79 1 8 0.135909 -0.132193 0.180412 0.0973899 0.0351992 -0.0335042 0 0 0 -1.84045 -0.466181 -8.94532 0.01 
80 1 8 0.136912 -0.132142 0.189356 0.0936723 0.0426875 -0.0331296 0 0 0 -1.84045 -0.466181 -8.94532 0.01 
81 1 9 -0.112109 0.0291041 0.103935 -0.348183 0.169603 0.278955 0.405109 -0.648742 0.587697 5.21231 7.87536 4.32396 0.01 
82 1 9 -0.110865 0.0281305 0.112795 -0.274195 0.1288 0.264082 0 0 0 5.21231 7.87536 4.32396 0.01 
83 1 9 -0.109621 0.0271569 0.121655 -0.200208 0.0879979 0.249209 0 0 0 5.21231 7.87536 4.32396 0.01 
84 1 9 -0.108377 0.0261833 0.130516 -0.12622 0.0471954 0.234335 0 0 0 5.21231 7.87536 4.32396 0.01 
85 1 9 -0.107132 0.0252096 0.139376 -0.0522324 0.00639289 0.219462 0 0 0 5.21231 7.87536 4.32396 0.01 
86 1 9 -0.105888 0.024236 0.148236 0.0217552 -0.0344096 0.204589 0 0 0 5.21231 7.87536 4.32396 0.01 
87 1 9 -0.104644 0.0232624 0.157096 0.0957427 -0.0752121 0.189716 0 0 0 5.21231 7.87536 4.32396 0.01 
88 1 9 -0.1034 0.0222888 0.165957 0.16973 -0.116015 0.174842 0 0 0 5.21231 7.87536 4.32396 0.01 
89 1 9 -0.102156 0.0213151 0.174817 0.243718 -0.156817 0.159969 0 0 0 5.21231 7.87536 4.32396 0.01 
90 1 9 -0.100911 0.0203415 0.183677 0.317705 -0.19762 0.145096 0 0 0 5.21231 7.87536 4.32396 0.01 
91 1 10 0.0612793 0.198276 0.110712 0.176612 -0.0736213 -0.185544 0 0 0 -1.61364 -2.55923 2.89748 0.01 
92 1 10 0.0599768 0.199206 0.119568 0.151252 -0.0631038 -0.190377 0 0 0 -1.61364 -2.55923 2.89748 0.01 
93 1 10 0.0586742 0.200135 0.128425 0.125892 -0.0525864 -0.195211 0 0 0 -1.61364 -2.55923 2.89748 0.01 
94 1 10 0.0573717 0.201065 0.137282 0.100533 -0.042069 -0.200044 0 0 0 -1.61364 -2.55923 2.89748 0.01 
95 1 10 0.0560692 0.201994 0.146138 0.0751733 -0.0315515 -0.204878 0 0 0 -1.61364 -2.55923 2.89748 0.01 
96 1 10 0.0547667 0.202924 0.154995 0.0498137 -0.0210341 -0.209711 0 0 0 -1.61364 -2.55923 2.89748 0.01 
97 1 10 0.0534642 0.203853 0.163851 0.0244541 -0.0105167 -0.214544 0 0 0 -1.61364 -2.55923 2.89748 0.01 
98 1 10 0.0521617 0.204783 0.172708 -0.000905456 7.52158e-07 -0.219378 0 0 0 -1.61364 -2.55923 2.89748 0.01 
99 1 10 0.0508592 0.205713 0.181565 -0.026265 0.0105182 -0.224211 0 0 0 -1.61364 -2.55923 2.89748 0.01 
100 1 10 0.0495567 0.206642 0.190421 -0.0516246 0.0210356 -0.229045 -0.0594156 0.185093 -1.20792 -1.61364 -2.55923 2.89748 0.01 
101 1 11 -0.206318 -0.0947301 0.0735056 -0.513867 -0.151782 -0.449461 0 0 0 1.81699 4.31824 20.647 0.01 
102 1 11 -0.205046 -0.0950502 0.0824096 -0.468808 -0.141709 -0.455533 0 0 0 1.81699 4.31824 20.647 0.01 
103 1 11 -0.203775 -0.0953703 0.0913136 -0.423749 -0.131635 -0.461605 0 0 0 1.81699 4.31824 20.647 0.01 
104 1 11 -0.202503 -0.0956904 0.100218 -0.37869 -0.121561 -0.467677 0 0 0 1.81699 4.31824 20.647 0.01 
105 1 11 -0.201232 -0.0960105 0.109122 -0.333631 -0.111487 -0.47375 0 0 0 1.81699 4.31824 20.647 0.01 
106 1 11 -0.19996 -0.0963307 0.118026 -0.288573 -0.101413 -0.479822 0 0 0 1.81699 4.31824 20.647 0.01 
107 1 11 -0.198689 -0.0966508 0.126929 -0.243514 -0.0913397 -0.485894 0 0 0 1.81699 4.31824 20.647 0.01 
108 1 11 -0.197417 -0.0969709 0.135833 -0.198455 -0.0812659 -0.491966 0 0 0 1.81699 4.31824 20.647 0.01 
109 1 11 -0.196146 -0.097291 0.144737 -0.153396 -0.0711921 -0.498038 0 0 0 1.81699 4.31824 20.647 0.01 
110 1 11 -0.194874 -0.0976111 0.153641 -0.108337 -0.0611183 -0.504111 0 0 0 1.81699 4.31824 20.647 0.01 
111 1 12 0.0953328 0.0509141 0.112886 -0.0433904 0.043758 -0.170892 0 0 0 -0.893982 2.19088 -0.605235 0.01 
112 1 12 0.097502 0.0524019 0.121493 -0.0236329 0.0501397 -0.176975 0 0 0 -0.893982 2.19088 -0.605235 0.01 
113 1 12 0.0996711 0.0538897 0.1301 -0.00387549 0.0565214 -0.183057 0 0 0 -0.893982 2.19088 -0.605235 0.01 
114 1 12 0.10184 0.0553776 0.138707 0.015882 0.0629031 -0.18914 0 0 0 -0.893982 2.19088 -0.605235 0.01 
115 1 12 0.104009 0.0568654 0.147314 0.0356394 0.0692848 -0.195222 0 0 0 -0.893982 2.19088 -0.605235 0.01 
116 1 12 0.106179 0.0583532 0.155922 0.0553968 0.0756665 -0.201305 0 0 0 -0.893982 2.19088 -0.605235 0.01 
117 1 12 0.108348 0.059841 0.164529 0.0751543 0.0820481 -0.207387 0 0 0 -0.893982 2.19088 -0.605235 0.01 
118 1 12 0.110517 0.0613288 0.173136 0.0949117 0.0884298 -0.213469 0 0 0 -0.893982 2.19088 -0.605235 0.01 
119 1 12 0.112686 0.0628166 0.181743 0.114669 0.0948115 -0.219552 0 0 0 -0.893982 2.19088 -0.605235 0.01 
120 1 12 0.114855 0.0643045 0.19035 0.134427 0.101193 -0.225634 -0.067099 0.0112245 -0.0110755 -0.893982 2.19088 -0.605235 0.01 
121 1 13 -0.0143813 0.223796 0.107243 0.0445518 0.210045 -0.0357118 0.0353115 -0.0281678 -0.0159371 2.67411 -3.9154 4.59871 0.01 
122 1 13 -0.0154454 0.221849 0.115965 0.0193539 0.181827 -0.0450844 0 0 0 2.67411 -3.9154 4.59871 0.01 
123 1 13 -0.0165095 0.219902 0.124688 -0.0058441 0.153609 -0.054457 0 0 0 2.67411 -3.9154 4.59871 0.01 
124 1 13 -0.0175736 0.217955 0.13341 -0.0310421 0.125392 -0.0638296 0 0 0 2.67411 -3.9154 4.59871 0.01 
125 1 13 -0.0186377 0.216008 0.142132 -0.05624 0.0971738 -0.0732022 0 0 0 2.67411 -3.9154 4.59871 0.01 
126 1 13 -0.0197019 0.214061 0.150854 -0.081438 0.068956 -0.0825748 0 0 0 2.67411 -3.9154 4.59871 0.01 
127 1 13 -0.020766 0.212114 0.159577 -0.106636 0.0407382 -0.0919474 0 0 0 2.67411 -3.9154 4.59871 0.01 
128 1 13 -0.0218301 0.210168 0.168299 -0.131834 0.0125203 -0.10132 0 0 0 2.67411 -3.9154 4.59871 0.01 
129 1 13 -0.0228942 0.208221 0.177021 -0.157032 -0.0156975 -0.110693 0 0 0 2.67411 -3.9154 4.59871 0.01 
130 1 13 -0.0239584 0.206274 0.185743 -0.18223 -0.0439153 -0.120065 0 0 0 2.67411 -3.9154 4.59871 0.01 
131 1 14 -0.0465758 0.120748 0.00991665 0.0152226 0.023421 0.000680879 0.0415906 0.0454351 0.623449 -2.3549 1.53161 -3.74278 0.01 
132 1 14 -0.0455535 0.121822 0.0187937 0.0328388 0.0404995 -0.00341416 0 0 0 -2.3549 1.53161 -3.74278 0.01 
133 1 14 -0.0445313 0.122896 0.0276707 0.050455 0.0575779 -0.0075092 0 0 0 -2.3549 1.53161 -3.74278 0.01 
134 1 14 -0.0435091 0.12397 0.0365477 0.0680712 0.0746563 -0.0116042 0 0 0 -2.3549 1.53161 -3.74278 0.01 
135 1 14 -0.0424868 0.125044 0.0454247 0.0856874 0.0917347 -0.0156993 0 0 0 -2.3549 1.53161 -3.74278 0.01 
136 1 14 -0.0414646 0.126118 0.0543017 0.103304 0.108813 -0.0197943 0 0 0 -2.3549 1.53161 -3.74278 0.01 
137 1 14 -0.0404423 0.127192 0.0631787 0.12092 0.125892 -0.0238893 0 0 0 -2.3549 1.53161 -3.74278 0.01 
138 1 14 -0.0394201 0.128266 0.0720557 0.138536 0.14297 -0.0279844 0 0 0 -2.3549 1.53161 -3.74278 0.01 
139 1 14 -0.0383978 0.12934 0.0809328 0.156152 0.160048 -0.0320794 0 0 0 -2.3549 1.53161 -3.74278 0.01 
140 1 14 -0.0373756 0.130415 0.0898098 0.173768 0.177127 -0.0361745 0 0 0 -2.3549 1.53161 -3.74278 0.01 
141 1 15 -0.0104759 -0.0692272 0.0127185 -2.46202e-06 0.000181419 0.691558 0 0 0 -0.00569431 -7.72776e-05 -3.96843e-06 0.01 
142 1 15 -0.0104759 -0.0692267 0.0217185 -3.15752e-06 0.000232668 0.691558 0 0 0 -0.00569431 -7.72776e-05 -3.96843e-06 0.01 
143 1 15 -0.0104759 -0.0692263 0.0307185 -3.85301e-06 0.000283916 0.691558 0 0 0 -0.00569431 -7.72776e-05 -3.96843e-06 0.01 
144 1 15 -0.0104759 -0.0692258 0.0397185 -4.54851e-06 0.000335165 0.691558 0 0 0 -0.00569431 -7.72776e-05 -3.96843e-06 0.01 
145 1 15 -0.0104759 -0.0692254 0.0487185 -5.24401e-06 0.000386414 0.691558 0 0 0 -0.00569431 -7.72776e-05 -3.96843e-06 0.01 
146 1 15 -0.0104759 -0.0692249 0.0577185 -5.9395e-06 0.000437663 0.691558 0 0 0 -0.00569431 -7.72776e-05 -3.96843e-06 0.01 
147 1 15 -0.0104759 -0.0692245 0.0667185 -6.635e-06 0.000488912 0.691558 0 0 0 -0.00569431 -7.72776e-05 -3.96843e-06 0.01 
148 1 15 -0.0104759 -0.0692241 0.0757185 -7.3305e-06 0.000540161 0.691558 0 0 0 -0.00569431 -7.72776e-05 -3.96843e-06 0.01 
149 1 15 -0.0104759 -0.0692236 0.0847185 -8.02599e-06 0.000591409 0.691558 0 0 0 -0.00569431 -7.72776e-05 -3.96843e-06 0.01 
150 1 15 -0.0104759 -0.0692232 0.0937185 -8.72149e-06 0.000642658 0.691558 0 0 0 -0.00569431 -7.72776e-05 -3.96843e-06 0.01 
151 1 16 -0.037896 0.177141 0.017129 -0.0313977 -0.157521 -0.969805 0 0 0 -5.08438 1.56755 1.36898 0.01 
152 1 16 -0.0376737 0.177975 0.0260875 -0.0184964 -0.111668 -0.974394 0 0 0 -5.08438 1.56755 1.36898 0.01 
153 1 16 -0.0374515 0.178809 0.035046 -0.00559499 -0.0658155 -0.978982 0 0 0 -5.08438 1.56755 1.36898 0.01 
154 1 16 -0.0372292 0.179643 0.0440045 0.00730636 -0.0199627 -0.98357 0 0 0 -5.08438 1.56755 1.36898 0.01 
155 1 16 -0.0370069 0.180477 0.0529631 0.0202077 0.0258902 -0.988158 0 0 0 -5.08438 1.56755 1.36898 0.01 
156 1 16 -0.0367847 0.181311 0.0619216 0.0331091 0.071743 -0.992747 0 0 0 -5.08438 1.56755 1.36898 0.01 
157 1 16 -0.0365624 0.182145 0.0708801 0.0460104 0.117596 -0.997335 0 0 0 -5.08438 1.56755 1.36898 0.01 
158 1 16 -0.0363401 0.182979 0.0798386 0.0589118 0.163449 -1.00192 0 0 0 -5.08438 1.56755 1.36898 0.01 
159 1 16 -0.0361178 0.183813 0.0887972 0.0718131 0.209301 -1.00651 0 0 0 -5.08438 1.56755 1.36898 0.01 
160 1 16 -0.0358956 0.184646 0.0977557 0.0847145 0.255154 -1.0111 0 0 0 -5.08438 1.56755 1.36898 0.01 
161 1 17 0.0723025 0.0928935 0.00986283 0.00666558 -0.00905244 0.00737896 0.02361 -0.0485138 1.18929 0.839327 0.856954 0.232185 0.01 
162 1 17 0.07263 0.0923585 0.0188409 0.0144836 -0.016512 0.00664924 0 0 0 0.839327 0.856954 0.232185 0.01 
163 1 17 0.0729575 0.0918235 0.0278191 0.0223017 -0.0239715 0.00591951 0 0 0 0.839327 0.856954 0.232185 0.01 
164 1 17 0.073285 0.0912884 0.0367972 0.0301198 -0.031431 0.00518979 0 0 0 0.839327 0.856954 0.232185 0.01 
165 1 17 0.0736125 0.0907534 0.0457753 0.0379378 -0.0388906 0.00446007 0 0 0 0.839327 0.856954 0.232185 0.01 
166 1 17 0.07394 0.0902183 0.0547534 0.0457559 -0.0463501 0.00373035 -0.00995799 0.000577025 -0.00475003 0.839327 0.856954 0.232185 0.01 
167 1 17 0.0742675 0.0896833 0.0637315 0.0535739 -0.0538096 0.00300063 -0.00758225 0.000257405 -0.00362915 0.839327 0.856954 0.232185 0.01 
168 1 17 0.074595 0.0891482 0.0727096 0.061392 -0.0612692 0.00227091 -0.0205573 0.000206486 -0.00987638 0.839327 0.856954 0.232185 0.01 
169 1 17 0.0749225 0.0886132 0.0816877 0.0692101 -0.0687287 0.00154118 -0.0380081 -0.000524501 -0.018335 0.839327 0.856954 0.232185 0.01 
170 1 17 0.0752499 0.0880781 0.0906658 0.0770281 -0.0761882 0.000811462 0 0 0 0.839327 0.856954 0.232185 0.01 
171 1 18 -0.24991 -0.0437501 0.0967358 -0.515622 -0.119979 -0.591 0.0508915 -0.223364 0.229758 -3.41478 8.815 12.5647 0.01 
172 1 18 -0.248569 -0.0432661 0.105622 -0.443372 -0.0727763 -0.60448 -0.118645 0.239864 0.0615363 -3.41478 8.815 12.5647 0.01 
173 1 18 -0.247227 -0.0427821 0.114508 -0.371121 -0.0255738 -0.61796 -0.132291 0.308651 0.0864823 -3.41478 8.815 12.5647 0.01 
174 1 18 -0.245885 -0.042298 0.123395 -0.29887 0.0216287 -0.631439 -0.0380751 0.109084 0.0306682 -3.41478 8.815 12.5647 0.01 
175 1 18 -0.244544 -0.041814 0.132281 -0.22662 0.0688312 -0.644919 0.128932 -0.184098 0.162091 -3.41478 8.815 12.5647 0.01 
176 1 18 -0.243202 -0.04133 0.141167 -0.154369 0.116034 -0.658399 0 0 0 -3.41478 8.815 12.5647 0.01 
177 1 18 -0.24186 -0.0408459 0.150053 -0.0821184 0.163236 -0.671879 0 0 0 -3.41478 8.815 12.5647 0.01 
178 1 18 -0.240518 -0.0403619 0.15894 -0.00986773 0.210439 -0.685359 0 0 0 -3.41478 8.815 12.5647 0.01 
179 1 18 -0.239177 -0.0398779 0.167826 0.0623829 0.257641 -0.698839 0 0 0 -3.41478 8.815 12.5647 0.01 
180 1 18 -0.237835 -0.0393939 0.176712 0.134634 0.304844 -0.712318 0 0 0 -3.41478 8.815 12.5647 0.01 
181 1 19 0.00236093 0.172275 0.109126 0.134576 0.151679 0.00964118 0.368628 -0.276972 1.63621 4.06734 -2.42765 5.06173 0.01 
182 1 19 0.00370645 0.170621 0.11787 0.12172 0.122926 0.0061812 0 0 0 4.06734 -2.42765 5.06173 0.01 
183 1 19 0.00505196 0.168967 0.126614 0.108864 0.0941725 0.00272122 0 0 0 4.06734 -2.42765 5.06173 0.01 
184 1 19 0.00639748 0.167313 0.135358 0.0960079 0.065419 -0.000738766 0 0 0 4.06734 -2.42765 5.06173 0.01 
185 1 19 0.00774299 0.16566 0.144102 0.0831518 0.0366655 -0.00419875 0 0 0 4.06734 -2.42765 5.06173 0.01 
186 1 19 0.00908851 0.164006 0.152845 0.0702957 0.00791204 -0.00765873 0 0 0 4.06734 -2.42765 5.06173 0.01 
187 1 19 0.010434 0.162352 0.161589 0.0574397 -0.0208414 -0.0111187 0 0 0 4.06734 -2.42765 5.06173 0.01 
188 1 19 0.0117795 0.160698 0.170333 0.0445836 -0.0495949 -0.0145787 0 0 0 4.06734 -2.42765 5.06173 0.01 
189 1 19 0.0131251 0.159044 0.179077 0.0317276 -0.0783484 -0.0180387 -0.272997 -0.0439086 0.156888 4.06734 -2.42765 5.06173 0.01 
190 1 19 0.0144706 0.157391 0.187821 0.0188715 -0.107102 -0.0214987 0 0 0 4.06734 -2.42765 5.06173 0.01 
191 1 20 -0.00664388 0.188232 0.00993282 0.0238916 0.0138173 -0.0124777 0.0133618 0.0715908 0.678682 -2.15458 2.34823 7.64598 0.01 
192 1 20 -0.00616948 0.189403 0.0188437 0.0358654 0.0366438 -0.0161141 0 0 0 -2.15458 2.34823 7.64598 0.01 
193 1 20 -0.00569508 0.190573 0.0277546 0.0478392 0.0594703 -0.0197504 0 0 0 -2.15458 2.34823 7.64598 0.01 
194 1 20 -0.00522068 0.191744 0.0366656 0.059813 0.0822968 -0.0233868 0 0 0 -2.15458 2.34823 7.64598 0.01 
195 1 20 -0.00474628 0.192915 0.0455765 0.0717868 0.105123 -0.0270231 0 0 0 -2.15458 2.34823 7.64598 0.01 
196 1 20 -0.00427188 0.194085 0.0544874 0.0837606 0.12795 -0.0306595 0 0 0 -2.15458 2.34823 7.64598 0.01 
197 1 20 -0.00379747 0.195256 0.0633983 0.0957344 0.150776 -0.0342958 0 0 0 -2.15458 2.34823 7.64598 0.01 
198 1 20 -0.00332307 0.196427 0.0723092 0.107708 0.173603 -0.0379322 0 0 0 -2.15458 2.34823 7.64598 0.01 
199 1 20 -0.00284867 0.197598 0.0812201 0.119682 0.196429 -0.0415685 0 0 0 -2.15458 2.34823 7.64598 0.01 
200 1 20 -0.00237427 0.198768 0.0901311 0.131656 0.219256 -0.0452049 0 0 0 -2.15458 2.34823 7.64598 0.01 
201 1 21 0.0181975 0.00513232 0.0098722 0.0108198 0.017731 -0.00865963 0.0212651 0.232701 1.3866 -1.96247 0.520059 -6.7121 0.01 
202 1 21 0.0172961 0.0068793 0.0186549 0.0271132 0.0410166 -0.0116193 0 0 0 -1.96247 0.520059 -6.7121 0.01 
203 1 21 0.0163948 0.00862627 0.0274376 0.0434066 0.0643023 -0.0145789 0 0 0 -1.96247 0.520059 -6.7121 0.01 
204 1 21 0.0154935 0.0103732 0.0362203 0.0597 0.0875879 -0.0175385 0 0 0 -1.96247 0.520059 -6.7121 0.01 
205 1 21 0.0145921 0.0121202 0.045003 0.0759934 0.110873 -0.0204982 0 0 0 -1.96247 0.520059 -6.7121 0.01 
206 1 21 0.0136908 0.0138672 0.0537857 0.0922868 0.134159 -0.0234578 0 0 0 -1.96247 0.520059 -6.7121 0.01 
207 1 21 0.0127895 0.0156142 0.0625684 0.10858 0.157445 -0.0264174 0 0 0 -1.96247 0.520059 -6.7121 0.01 
208 1 21 0.0118881 0.0173611 0.071351 0.124874 0.18073 -0.0293771 0 0 0 -1.96247 0.520059 -6.7121 0.01 
209 1 21 0.0109868 0.0191081 0.0801337 0.141167 0.204016 -0.0323367 0 0 0 -1.96247 0.520059 -6.7121 0.01 
210 1 21 0.0100854 0.0208551 0.0889164 0.15746 0.227302 -0.0352963 0.224088 0.0650572 -0.116263 -1.96247 0.520059 -6.7121 0.01 
211 1 22 0.00297243 0.214129 0.109137 0.0675973 0.186784 -0.113914 0.0260306 0.0338913 0.0354903 4.89498 -2.96386 -0.704721 0.01 
212 1 22 0.00217562 0.211088 0.11757 0.0404597 0.146066 -0.131162 0 0 0 4.89498 -2.96386 -0.704721 0.01 
213 1 22 0.0013788 0.208047 0.126003 0.0133221 0.105347 -0.14841 0 0 0 4.89498 -2.96386 -0.704721 0.01 
214 1 22 0.000581991 0.205006 0.134436 -0.0138155 0.0646293 -0.165657 0 0 0 4.89498 -2.96386 -0.704721 0.01 
215 1 22 -0.000214821 0.201965 0.142869 -0.0409531 0.0239111 -0.182905 0 0 0 4.89498 -2.96386 -0.704721 0.01 
216 1 22 -0.00101163 0.198924 0.151302 -0.0680906 -0.0168071 -0.200153 0 0 0 4.89498 -2.96386 -0.704721 0.01 
217 1 22 -0.00180845 0.195883 0.159735 -0.0952282 -0.0575253 -0.217401 0 0 0 4.89498 -2.96386 -0.704721 0.01 
218 1 22 -0.00260526 0.192842 0.168168 -0.122366 -0.0982435 -0.234648 0 0 0 4.89498 -2.96386 -0.704721 0.01 
219 1 22 -0.00340207 0.189801 0.176601 -0.149503 -0.138962 -0.251896 0 0 0 4.89498 -2.96386 -0.704721 0.01 
220 1 22 -0.00419888 0.18676 0.185034 -0.176641 -0.17968 -0.269144 0 0 0 4.89498 -2.96386 -0.704721 0.01 
221 1 23 0.212801 0.0521346 0.11101 -0.165223 -0.0181032 0.21149 0 0 0 -3.72599 -0.472866 -2.7433 0.01 
222 1 23 0.212355 0.0534315 0.119905 -0.165871 0.0162615 0.206447 0 0 0 -3.72599 -0.472866 -2.7433 0.01 
223 1 23 0.21191 0.0547284 0.1288 -0.166519 0.0506262 0.201404 0 0 0 -3.72599 -0.472866 -2.7433 0.01 
224 1 23 0.211464 0.0560253 0.137694 -0.167168 0.0849909 0.196361 0 0 0 -3.72599 -0.472866 -2.7433 0.01 
225 1 23 0.211019 0.0573222 0.146589 -0.167816 0.119356 0.191318 -0.131101 0.213464 -0.15496 -3.72599 -0.472866 -2.7433 0.01 
226 1 23 0.210573 0.0586191 0.155484 -0.168464 0.15372 0.186275 0.0826483 -0.210111 -0.0902992 -3.72599 -0.472866 -2.7433 0.01 
227 1 23 0.210128 0.059916 0.164379 -0.169113 0.188085 0.181232 0 0 0 -3.72599 -0.472866 -2.7433 0.01 
228 1 23 0.209682 0.0612129 0.173274 -0.169761 0.22245 0.17619 0 0 0 -3.72599 -0.472866 -2.7433 0.01 
229 1 23 0.209236 0.0625097 0.182169 -0.170409 0.256814 0.171147 0 0 0 -3.72599 -0.472866 -2.7433 0.01 
230 1 23 0.208791 0.0638066 0.191064 -0.171058 0.291179 0.166104 0 0 0 -3.72599 -0.472866 -2.7433 0.01 
231 1 24 0.158599 0.0231841 0.00970721 0.0325724 -0.0325197 0.032547 0.402053 -0.967627 3.36413 2.56294 1.90276 10.0268 0.01 
232 1 24 0.159938 0.0208917 0.0183066 0.0719199 -0.0411255 0.0241224 0 0 0 2.56294 1.90276 10.0268 0.01 
233 1 24 0.161278 0.0185993 0.026906 0.111267 -0.0497313 0.0156979 0 0 0 2.56294 1.90276 10.0268 0.01 
234 1 24 0.162618 0.016307 0.0355055 0.150615 -0.0583372 0.00727337 0 0 0 2.56294 1.90276 10.0268 0.01 
235 1 24 0.163958 0.0140146 0.0441049 0.189962 -0.066943 -0.00115116 0 0 0 2.56294 1.90276 10.0268 0.01 
236 1 24 0.165298 0.0117223 0.0527043 0.22931 -0.0755488 -0.00957569 0 0 0 2.56294 1.90276 10.0268 0.01 
237 1 24 0.166638 0.00942991 0.0613037 0.268657 -0.0841546 -0.0180002 0 0 0 2.56294 1.90276 10.0268 0.01 
238 1 24 0.167977 0.00713755 0.0699031 0.308005 -0.0927605 -0.0264247 0 0 0 2.56294 1.90276 10.0268 0.01 
239 1 24 0.169317 0.0048452 0.0785026 0.347353 -0.101366 -0.0348493 0 0 0 2.56294 1.90276 10.0268 0.01 
240 1 24 0.170657 0.00255284 0.087102 0.3867 -0.109972 -0.0432738 -0.750588 0.766731 -3.27986 2.56294 1.90276 10.0268 0.01 
241 1 25 0.134566 -0.17435 0.111976 -0.0160243 -0.020784 -0.150496 0 0 0 -1.22116 1.30408 4.60771 0.01 
242 1 25 0.13514 -0.174125 0.120955 -0.00534875 -0.00717569 -0.151518 0 0 0 -1.22116 1.30408 4.60771 0.01 
243 1 25 0.135714 -0.173901 0.129933 0.00532677 0.00643263 -0.15254 0 0 0 -1.22116 1.30408 4.60771 0.01 
244 1 25 0.136288 -0.173677 0.138912 0.0160023 0.0200409 -0.153562 0 0 0 -1.22116 1.30408 4.60771 0.01 
245 1 25 0.136861 -0.173452 0.147891 0.0266778 0.0336493 -0.154584 0 0 0 -1.22116 1.30408 4.60771 0.01 
246 1 25 0.137435 -0.173228 0.15687 0.0373534 0.0472576 -0.155607 0 0 0 -1.22116 1.30408 4.60771 0.01 
247 1 25 0.138009 -0.173004 0.165849 0.0480289 0.0608659 -0.156629 0 0 0 -1.22116 1.30408 4.60771 0.01 
248 1 25 0.138583 -0.172779 0.174828 0.0587044 0.0744742 -0.157651 0 0 0 -1.22116 1.30408 4.60771 0.01 
249 1 25 0.139156 -0.172555 0.183807 0.0693799 0.0880826 -0.158673 0 0 0 -1.22116 1.30408 4.60771 0.01 
250 1 25 0.13973 -0.172331 0.192786 0.0800555 0.101691 -0.159695 0 0 0 -1.22116 1.30408 4.60771 0.01 
251 1 26 -0.00691582 -0.170232 0.0097854 0.0259094 -0.0376663 0.0742573 0.360786 -0.259522 0.88886 2.0807 1.71816 -6.68139 0.01 
252 1 26 -0.00561773 -0.171549 0.0185934 0.0322429 -0.0646661 0.0692864 0 0 0 2.0807 1.71816 -6.68139 0.01 
253 1 26 -0.00431964 -0.172866 0.0274013 0.0385764 -0.0916659 0.0643156 0 0 0 2.0807 1.71816 -6.68139 0.01 
254 1 26 -0.00302154 -0.174183 0.0362093 0.0449099 -0.118666 0.0593448 0 0 0 2.0807 1.71816 -6.68139 0.01 
255 1 26 -0.00172345 -0.1755 0.0450173 0.0512435 -0.145666 0.054374 0 0 0 2.0807 1.71816 -6.68139 0.01 
256 1 26 -0.000425356 -0.176818 0.0538252 0.057577 -0.172665 0.0494032 0 0 0 2.0807 1.71816 -6.68139 0.01 
257 1 26 0.000872737 -0.178135 0.0626332 0.0639105 -0.199665 0.0444324 0 0 0 2.0807 1.71816 -6.68139 0.01 
258 1 26 0.00217083 -0.179452 0.0714411 0.070244 -0.226665 0.0394615 0 0 0 2.0807 1.71816 -6.68139 0.01 
259 1 26 0.00346892 -0.180769 0.0802491 0.0765776 -0.253665 0.0344907 0 0 0 2.0807 1.71816 -6.68139 0.01 
260 1 26 0.00476702 -0.182086 0.0890571 0.0829111 -0.280665 0.0295199 -0.827834 1.21411 -0.60532 2.0807 1.71816 -6.68139 0.01 
261 1 27 -0.126554 0.168526 0.116912 0.225117 0.372475 0.0181312 0 0 0 9.0607 1.23867 -8.84477 0.01 
262 1 27 -0.128825 0.165289 0.124997 0.2065 0.3193 -0.00838773 0 0 0 9.0607 1.23867 -8.84477 0.01 
263 1 27 -0.131095 0.162051 0.133082 0.187882 0.266124 -0.0349067 -0.174217 0.140652 -0.138758 9.0607 1.23867 -8.84477 0.01 
264 1 27 -0.133365 0.158814 0.141167 0.169265 0.212949 -0.0614256 0 0 0 9.0607 1.23867 -8.84477 0.01 
265 1 27 -0.135635 0.155577 0.149252 0.150647 0.159774 -0.0879445 0 0 0 9.0607 1.23867 -8.84477 0.01 
266 1 27 -0.137906 0.15234 0.157337 0.13203 0.106599 -0.114463 0 0 0 9.0607 1.23867 -8.84477 0.01 
267 1 27 -0.140176 0.149103 0.165421 0.113413 0.0534235 -0.140982 0 0 0 9.0607 1.23867 -8.84477 0.01 
268 1 27 -0.142446 0.145866 0.173506 0.094795 0.000248294 -0.167501 0 0 0 9.0607 1.23867 -8.84477 0.01 
269 1 27 -0.144717 0.142628 0.181591 0.0761775 -0.0529269 -0.19402 0 0 0 9.0607 1.23867 -8.84477 0.01 
270 1 27 -0.146987 0.139391 0.189676 0.0575601 -0.106102 -0.220539 0 0 0 9.0607 1.23867 -8.84477 0.01 