ITEM: TIMESTEP
3000
ITEM: NUMBER OF ATOMS
6300
ITEM: BOX BOUNDS mm mm mm
-0.3 0.3
-0.3 0.3
0 0.5
ITEM: ATOMS id type mol x y z vx vy vz fx fy fz omegax omegay omegaz radius 
1 1 1 -0.115317 -0.129414 0.209781 0 0 -1.29425 0 0 0 0 0 0 0.01 
2 1 1 -0.115317 -0.129414 0.218781 0 0 -1.29425 0 0 0 0 0 0 0.01 
3 1 1 -0.115317 -0.129414 0.227781 0 0 -1.29425 0 0 0 0 0 0 0.01 
4 1 1 -0.115317 -0.129414 0.236781 0 0 -1.29425 0 0 0 0 0 0 0.01 
5 1 1 -0.115317 -0.129414 0.245781 0 0 -1.29425 0 0 0 0 0 0 0.01 
6 1 1 -0.115317 -0.129414 0.254781 0 0 -1.29425 0 0 0 0 0 0 0.01 
7 1 1 -0.115317 -0.129414 0.263781 0 0 -1.29425 0 0 0 0 0 0 0.01 
8 1 1 -0.115317 -0.129414 0.272781 0 0 -1.29425 0 0 0 0 0 0 0.01 
9 1 1 -0.115317 -0.129414 0.281781 0 0 -1.29425 0 0 0 0 0 0 0.01 
10 1 1 -0.115317 -0.129414 0.290781 0 0 -1.29425 0 0 0 0 0 0 0.01 
11 1 2 -0.0460582 -0.101391 0.199321 0 0 -1.29425 0 0 0 0 0 0 0.01 
12 1 2 -0.0460582 -0.101391 0.208321 0 0 -1.29425 0 0 0 0 0 0 0.01 
13 1 2 -0.0460582 -0.101391 0.217321 0 0 -1.29425 0 0 0 0 0 0 0.01 
14 1 2 -0.0460582 -0.101391 0.226321 0 0 -1.29425 0 0 0 0 0 0 0.01 
15 1 2 -0.0460582 -0.101391 0.235321 0 0 -1.29425 0 0 0 0 0 0 0.01 
16 1 2 -0.0460582 -0.101391 0.244321 0 0 -1.29425 0 0 0 0 0 0 0.01 
17 1 2 -0.0460582 -0.101391 0.253321 0 0 -1.29425 0 0 0 0 0 0 0.01 
18 1 2 -0.0460582 -0.101391 0.262321 0 0 -1.29425 0 0 0 0 0 0 0.01 
19 1 2 -0.0460582 -0.101391 0.271321 0 0 -1.29425 0 0 0 0 0 0 0.01 
20 1 2 -0.0460582 -0.101391 0.280321 0 0 -1.29425 0 0 0 0 0 0 0.01 
21 1 3 -0.0433468 -0.0313624 0.185379 0 0 -1.29425 0 0 0 0 0 0 0.01 
22 1 3 -0.0433468 -0.0313624 0.194379 0 0 -1.29425 0 0 0 0 0 0 0.01 
23 1 3 -0.0433468 -0.0313624 0.203379 0 0 -1.29425 0 0 0 0 0 0 0.01 
24 1 3 -0.0433468 -0.0313624 0.212379 0 0 -1.29425 0 0 0 0 0 0 0.01 
25 1 3 -0.0433468 -0.0313624 0.221379 0 0 -1.29425 0 0 0 0 0 0 0.01 
26 1 3 -0.0433468 -0.0313624 0.230379 0 0 -1.29425 0 0 0 0 0 0 0.01 
27 1 3 -0.0433468 -0.0313624 0.239379 0 0 -1.29425 0 0 0 0 0 0 0.01 
28 1 3 -0.0433468 -0.0313624 0.248379 0 0 -1.29425 0 0 0 0 0 0 0.01 
29 1 3 -0.0433468 -0.0313624 0.257379 0 0 -1.29425 0 0 0 0 0 0 0.01 
30 1 3 -0.0433468 -0.0313624 0.266379 0 0 -1.29425 0 0 0 0 0 0 0.01 
31 1 4 -0.0929903 0.110329 0.126141 0 0 -1.29425 0 0 0 0 0 0 0.01 
32 1 4 -0.0929903 0.110329 0.135141 0 0 -1.29425 0 0 0 0 0 0 0.01 
33 1 4 -0.0929903 0.110329 0.144141 0 0 -1.29425 0 0 0 0 0 0 0.01 
34 1 4 -0.0929903 0.110329 0.153141 0 0 -1.29425 0 0 0 0 0 0 0.01 
35 1 4 -0.0929903 0.110329 0.162141 0 0 -1.29425 0 0 0 0 0 0 0.01 
36 1 4 -0.0929903 0.110329 0.171141 0 0 -1.29425 0 0 0 0 0 0 0.01 
37 1 4 -0.0929903 0.110329 0.180141 0 0 -1.29425 0 0 0 0 0 0 0.01 
38 1 4 -0.0929903 0.110329 0.189141 0 0 -1.29425 0 0 0 0 0 0 0.01 
39 1 4 -0.0929903 0.110329 0.198141 0 0 -1.29425 0 0 0 0 0 0 0.01 
40 1 4 -0.0929903 0.110329 0.207141 0 0 -1.29425 0 0 0 0 0 0 0.01 
41 1 5 0.0772217 -0.137096 0.144012 0 0 -1.29425 0 0 0 0 0 0 0.01 
42 1 5 0.0772217 -0.137096 0.153012 0 0 -1.29425 0 0 0 0 0 0 0.01 
43 1 5 0.0772217 -0.137096 0.162012 0 0 -1.29425 0 0 0 0 0 0 0.01 
44 1 5 0.0772217 -0.137096 0.171012 0 0 -1.29425 0 0 0 0 0 0 0.01 
45 1 5 0.0772217 -0.137096 0.180012 0 0 -1.29425 0 0 0 0 0 0 0.01 
46 1 5 0.0772217 -0.137096 0.189012 0 0 -1.29425 0 0 0 0 0 0 0.01 
47 1 5 0.0772217 -0.137096 0.198012 0 0 -1.29425 0 0 0 0 0 0 0.01 
48 1 5 0.0772217 -0.137096 0.207012 0 0 -1.29425 0 0 0 0 0 0 0.01 
49 1 5 0.0772217 -0.137096 0.216012 0 0 -1.29425 0 0 0 0 0 0 0.01 
50 1 5 0.0772217 -0.137096 0.225012 0 0 -1.29425 0 0 0 0 0 0 0.01 
51 1 6 0.170849 -0.044483 0.174582 0 0 -1.29425 0 0 0 0 0 0 0.01 
52 1 6 0.170849 -0.044483 0.183582 0 0 -1.29425 0 0 0 0 0 0 0.01 
53 1 6 0.170849 -0.044483 0.192582 0 0 -1.29425 0 0 0 0 0 0 0.01 
54 1 6 0.170849 -0.044483 0.201582 0 0 -1.29425 0 0 0 0 0 0 0.01 
55 1 6 0.170849 -0.044483 0.210582 0 0 -1.29425 0 0 0 0 0 0 0.01 
56 1 6 0.170849 -0.044483 0.219582 0 0 -1.29425 0 0 0 0 0 0 0.01 
57 1 6 0.170849 -0.044483 0.228582 0 0 -1.29425 0 0 0 0 0 0 0.01 
58 1 6 0.170849 -0.044483 0.237582 0 0 -1.29425 0 0 0 0 0 0 0.01 
59 1 6 0.170849 -0.044483 0.246582 0 0 -1.29425 0 0 0 0 0 0 0.01 
60 1 6 0.170849 -0.044483 0.255582 0 0 -1.29425 0 0 0 0 0 0 0.01 
61 1 7 -0.0369062 0.215855 0.177104 0 0 -1.29425 0 0 0 0 0 0 0.01 
62 1 7 -0.0369062 0.215855 0.186104 0 0 -1.29425 0 0 0 0 0 0 0.01 
63 1 7 -0.0369062 0.215855 0.195104 0 0 -1.29425 0 0 0 0 0 0 0.01 
64 1 7 -0.0369062 0.215855 0.204104 0 0 -1.29425 0 0 0 0 0 0 0.01 
65 1 7 -0.0369062 0.215855 0.213104 0 0 -1.29425 0 0 0 0 0 0 0.01 
66 1 7 -0.0369062 0.215855 0.222104 0 0 -1.29425 0 0 0 0 0 0 0.01 
67 1 7 -0.0369062 0.215855 0.231104 0 0 -1.29425 0 0 0 0 0 0 0.01 
68 1 7 -0.0369062 0.215855 0.240104 0 0 -1.29425 0 0 0 0 0 0 0.01 
69 1 7 -0.0369062 0.215855 0.249104 0 0 -1.29425 0 0 0 0 0 0 0.01 
70 1 7 -0.0369062 0.215855 0.258104 0 0 -1.29425 0 0 0 0 0 0 0.01 
71 1 8 0.122768 -0.136526 0.191961 0 0 -1.29425 0 0 0 0 0 0 0.01 
72 1 8 0.122768 -0.136526 0.200961 0 0 -1.29425 0 0 0 0 0 0 0.01 
73 1 8 0.122768 -0.136526 0.209961 0 0 -1.29425 0 0 0 0 0 0 0.01 
74 1 8 0.122768 -0.136526 0.218961 0 0 -1.29425 0 0 0 0 0 0 0.01 
75 1 8 0.122768 -0.136526 0.227961 0 0 -1.29425 0 0 0 0 0 0 0.01 
76 1 8 0.122768 -0.136526 0.236961 0 0 -1.29425 0 0 0 0 0 0 0.01 
77 1 8 0.122768 -0.136526 0.245961 0 0 -1.29425 0 0 0 0 0 0 0.01 
78 1 8 0.122768 -0.136526 0.254961 0 0 -1.29425 0 0 0 0 0 0 0.01 
79 1 8 0.122768 -0.136526 0.263961 0 0 -1.29425 0 0 0 0 0 0 0.01 
80 1 8 0.122768 -0.136526 0.272961 0 0 -1.29425 0 0 0 0 0 0 0.01 
81 1 9 -0.103348 0.0216352 0.323951 0 0 -1.29425 0 0 0 0 0 0 0.01 
82 1 9 -0.103348 0.0216352 0.332951 0 0 -1.29425 0 0 0 0 0 0 0.01 
83 1 9 -0.103348 0.0216352 0.341951 0 0 -1.29425 0 0 0 0 0 0 0.01 
84 1 9 -0.103348 0.0216352 0.350951 0 0 -1.29425 0 0 0 0 0 0 0.01 
85 1 9 -0.103348 0.0216352 0.359951 0 0 -1.29425 0 0 0 0 0 0 0.01 
86 1 9 -0.103348 0.0216352 0.368951 0 0 -1.29425 0 0 0 0 0 0 0.01 
87 1 9 -0.103348 0.0216352 0.377951 0 0 -1.29425 0 0 0 0 0 0 0.01 
88 1 9 -0.103348 0.0216352 0.386951 0 0 -1.29425 0 0 0 0 0 0 0.01 
89 1 9 -0.103348 0.0216352 0.395951 0 0 -1.29425 0 0 0 0 0 0 0.01 
90 1 9 -0.103348 0.0216352 0.404951 0 0 -1.29425 0 0 0 0 0 0 0.01 
91 1 10 0.0526392 0.204817 0.160421 0 0 -1.29425 0 0 0 0 0 0 0.01 
92 1 10 0.0526392 0.204817 0.169421 0 0 -1.29425 0 0 0 0 0 0 0.01 
93 1 10 0.0526392 0.204817 0.178421 0 0 -1.29425 0 0 0 0 0 0 0.01 
94 1 10 0.0526392 0.204817 0.187421 0 0 -1.29425 0 0 0 0 0 0 0.01 
95 1 10 0.0526392 0.204817 0.196421 0 0 -1.29425 0 0 0 0 0 0 0.01 
96 1 10 0.0526392 0.204817 0.205421 0 0 -1.29425 0 0 0 0 0 0 0.01 
97 1 10 0.0526392 0.204817 0.214421 0 0 -1.29425 0 0 0 0 0 0 0.01 
98 1 10 0.0526392 0.204817 0.223421 0 0 -1.29425 0 0 0 0 0 0 0.01 
99 1 10 0.0526392 0.204817 0.232421 0 0 -1.29425 0 0 0 0 0 0 0.01 
100 1 10 0.0526392 0.204817 0.241421 0 0 -1.29425 0 0 0 0 0 0 0.01 
101 1 11 -0.191384 -0.0894902 0.212731 0 0 -1.29425 0 0 0 0 0 0 0.01 
102 1 11 -0.191384 -0.0894902 0.221731 0 0 -1.29425 0 0 0 0 0 0 0.01 
103 1 11 -0.191384 -0.0894902 0.230731 0 0 -1.29425 0 0 0 0 0 0 0.01 
104 1 11 -0.191384 -0.0894902 0.239731 0 0 -1.29425 0 0 0 0 0 0 0.01 
105 1 11 -0.191384 -0.0894902 0.248731 0 0 -1.29425 0 0 0 0 0 0 0.01 
106 1 11 -0.191384 -0.0894902 0.257731 0 0 -1.29425 0 0 0 0 0 0 0.01 
107 1 11 -0.191384 -0.0894902 0.266731 0 0 -1.29425 0 0 0 0 0 0 0.01 
108 1 11 -0.191384 -0.0894902 0.275731 0 0 -1.29425 0 0 0 0 0 0 0.01 
109 1 11 -0.191384 -0.0894902 0.284731 0 0 -1.29425 0 0 0 0 0 0 0.01 
110 1 11 -0.191384 -0.0894902 0.293731 0 0 -1.29425 0 0 0 0 0 0 0.01 
111 1 12 0.0959754 0.0567813 0.143863 0 0 -1.29425 0 0 0 0 0 0 0.01 
112 1 12 0.0959754 0.0567813 0.152863 0 0 -1.29425 0 0 0 0 0 0 0.01 
113 1 12 0.0959754 0.0567813 0.161863 0 0 -1.29425 0 0 0 0 0 0 0.01 
114 1 12 0.0959754 0.0567813 0.170863 0 0 -1.29425 0 0 0 0 0 0 0.01 
115 1 12 0.0959754 0.0567813 0.179863 0 0 -1.29425 0 0 0 0 0 0 0.01 
116 1 12 0.0959754 0.0567813 0.188863 0 0 -1.29425 0 0 0 0 0 0 0.01 
117 1 12 0.0959754 0.0567813 0.197863 0 0 -1.29425 0 0 0 0 0 0 0.01 
118 1 12 0.0959754 0.0567813 0.206863 0 0 -1.29425 0 0 0 0 0 0 0.01 
119 1 12 0.0959754 0.0567813 0.215863 0 0 -1.29425 0 0 0 0 0 0 0.01 
120 1 12 0.0959754 0.0567813 0.224863 0 0 -1.29425 0 0 0 0 0 0 0.01 
121 1 13 -0.0168848 0.215837 0.297101 0 0 -1.29425 0 0 0 0 0 0 0.01 
122 1 13 -0.0168848 0.215837 0.306101 0 0 -1.29425 0 0 0 0 0 0 0.01 
123 1 13 -0.0168848 0.215837 0.315101 0 0 -1.29425 0 0 0 0 0 0 0.01 
124 1 13 -0.0168848 0.215837 0.324101 0 0 -1.29425 0 0 0 0 0 0 0.01 
125 1 13 -0.0168848 0.215837 0.333101 0 0 -1.29425 0 0 0 0 0 0 0.01 
126 1 13 -0.0168848 0.215837 0.342101 0 0 -1.29425 0 0 0 0 0 0 0.01 
127 1 13 -0.0168848 0.215837 0.351101 0 0 -1.29425 0 0 0 0 0 0 0.01 
128 1 13 -0.0168848 0.215837 0.360101 0 0 -1.29425 0 0 0 0 0 0 0.01 
129 1 13 -0.0168848 0.215837 0.369101 0 0 -1.29425 0 0 0 0 0 0 0.01 
130 1 13 -0.0168848 0.215837 0.378101 0 0 -1.29425 0 0 0 0 0 0 0.01 
131 1 14 -0.0494958 0.122461 0.0682517 0 0 -1.29425 0 0 0 0 0 0 0.01 
132 1 14 -0.0494958 0.122461 0.0772517 0 0 -1.29425 0 0 0 0 0 0 0.01 
133 1 14 -0.0494958 0.122461 0.0862517 0 0 -1.29425 0 0 0 0 0 0 0.01 
134 1 14 -0.0494958 0.122461 0.0952517 0 0 -1.29425 0 0 0 0 0 0 0.01 
135 1 14 -0.0494958 0.122461 0.104252 0 0 -1.29425 0 0 0 0 0 0 0.01 
136 1 14 -0.0494958 0.122461 0.113252 0 0 -1.29425 0 0 0 0 0 0 0.01 
137 1 14 -0.0494958 0.122461 0.122252 0 0 -1.29425 0 0 0 0 0 0 0.01 
138 1 14 -0.0494958 0.122461 0.131252 0 0 -1.29425 0 0 0 0 0 0 0.01 
139 1 14 -0.0494958 0.122461 0.140252 0 0 -1.29425 0 0 0 0 0 0 0.01 
140 1 14 -0.0494958 0.122461 0.149252 0 0 -1.29425 0 0 0 0 0 0 0.01 
141 1 15 -0.0104758 -0.0692281 0.23946 0 0 -1.29425 0 0 0 0 0 0 0.01 
142 1 15 -0.0104758 -0.0692281 0.24846 0 0 -1.29425 0 0 0 0 0 0 0.01 
143 1 15 -0.0104758 -0.0692281 0.25746 0 0 -1.29425 0 0 0 0 0 0 0.01 
144 1 15 -0.0104758 -0.0692281 0.26646 0 0 -1.29425 0 0 0 0 0 0 0.01 
145 1 15 -0.0104758 -0.0692281 0.27546 0 0 -1.29425 0 0 0 0 0 0 0.01 
146 1 15 -0.0104758 -0.0692281 0.28446 0 0 -1.29425 0 0 0 0 0 0 0.01 
147 1 15 -0.0104758 -0.0692281 0.29346 0 0 -1.29425 0 0 0 0 0 0 0.01 
148 1 15 -0.0104758 -0.0692281 0.30246 0 0 -1.29425 0 0 0 0 0 0 0.01 
149 1 15 -0.0104758 -0.0692281 0.31146 0 0 -1.29425 0 0 0 0 0 0 0.01 
150 1 15 -0.0104758 -0.0692281 0.32046 0 0 -1.29425 0 0 0 0 0 0 0.01 
151 1 16 -0.0407462 0.176734 0.172943 0 0 -1.29425 0 0 0 0 0 0 0.01 
152 1 16 -0.0407462 0.176734 0.181943 0 0 -1.29425 0 0 0 0 0 0 0.01 
153 1 16 -0.0407462 0.176734 0.190943 0 0 -1.29425 0 0 0 0 0 0 0.01 
154 1 16 -0.0407462 0.176734 0.199943 0 0 -1.29425 0 0 0 0 0 0 0.01 
155 1 16 -0.0407462 0.176734 0.208943 0 0 -1.29425 0 0 0 0 0 0 0.01 
156 1 16 -0.0407462 0.176734 0.217943 0 0 -1.29425 0 0 0 0 0 0 0.01 
157 1 16 -0.0407462 0.176734 0.226943 0 0 -1.29425 0 0 0 0 0 0 0.01 
158 1 16 -0.0407462 0.176734 0.235943 0 0 -1.29425 0 0 0 0 0 0 0.01 
159 1 16 -0.0407462 0.176734 0.244943 0 0 -1.29425 0 0 0 0 0 0 0.01 
160 1 16 -0.0407462 0.176734 0.253943 0 0 -1.29425 0 0 0 0 0 0 0.01 
161 1 17 0.0731894 0.0923845 0.0731345 0 0 -1.29425 0 0 0 0 0 0 0.01 
162 1 17 0.0731894 0.0923845 0.0821345 0 0 -1.29425 0 0 0 0 0 0 0.01 
163 1 17 0.0731894 0.0923845 0.0911345 0 0 -1.29425 0 0 0 0 0 0 0.01 
164 1 17 0.0731894 0.0923845 0.100134 0 0 -1.29425 0 0 0 0 0 0 0.01 
165 1 17 0.0731894 0.0923845 0.109134 0 0 -1.29425 0 0 0 0 0 0 0.01 
166 1 17 0.0731894 0.0923845 0.118134 0 0 -1.29425 0 0 0 0 0 0 0.01 
167 1 17 0.0731894 0.0923845 0.127134 0 0 -1.29425 0 0 0 0 0 0 0.01 
168 1 17 0.0731894 0.0923845 0.136134 0 0 -1.29425 0 0 0 0 0 0 0.01 
169 1 17 0.0731894 0.0923845 0.145134 0 0 -1.29425 0 0 0 0 0 0 0.01 
170 1 17 0.0731894 0.0923845 0.154134 0 0 -1.29425 0 0 0 0 0 0 0.01 
171 1 18 -0.23779 -0.0339416 0.275603 0 0 -1.29425 0 0 0 0 0 0 0.01 
172 1 18 -0.23779 -0.0339416 0.284603 0 0 -1.29425 0 0 0 0 0 0 0.01 
173 1 18 -0.23779 -0.0339416 0.293603 0 0 -1.29425 0 0 0 0 0 0 0.01 
174 1 18 -0.23779 -0.0339416 0.302603 0 0 -1.29425 0 0 0 0 0 0 0.01 
175 1 18 -0.23779 -0.0339416 0.311603 0 0 -1.29425 0 0 0 0 0 0 0.01 
176 1 18 -0.23779 -0.0339416 0.320603 0 0 -1.29425 0 0 0 0 0 0 0.01 
177 1 18 -0.23779 -0.0339416 0.329603 0 0 -1.29425 0 0 0 0 0 0 0.01 
178 1 18 -0.23779 -0.0339416 0.338603 0 0 -1.29425 0 0 0 0 0 0 0.01 
179 1 18 -0.23779 -0.0339416 0.347603 0 0 -1.29425 0 0 0 0 0 0 0.01 
180 1 18 -0.23779 -0.0339416 0.356603 0 0 -1.29425 0 0 0 0 0 0 0.01 
181 1 19 0.00334189 0.165527 0.252853 0 0 -1.29425 0 0 0 0 0 0 0.01 
182 1 19 0.00334189 0.165527 0.261853 0 0 -1.29425 0 0 0 0 0 0 0.01 
183 1 19 0.00334189 0.165527 0.270853 0 0 -1.29425 0 0 0 0 0 0 0.01 
184 1 19 0.00334189 0.165527 0.279853 0 0 -1.29425 0 0 0 0 0 0 0.01 
185 1 19 0.00334189 0.165527 0.288853 0 0 -1.29425 0 0 0 0 0 0 0.01 
186 1 19 0.00334189 0.165527 0.297853 0 0 -1.29425 0 0 0 0 0 0 0.01 
187 1 19 0.00334189 0.165527 0.306853 0 0 -1.29425 0 0 0 0 0 0 0.01 
188 1 19 0.00334189 0.165527 0.315853 0 0 -1.29425 0 0 0 0 0 0 0.01 
189 1 19 0.00334189 0.165527 0.324853 0 0 -1.29425 0 0 0 0 0 0 0.01 
190 1 19 0.00334189 0.165527 0.333853 0 0 -1.29425 0 0 0 0 0 0 0.01 
191 1 20 -0.00784267 0.186597 0.0302865 0 0 -1.29425 0 0 0 0 0 0 0.01 
192 1 20 -0.00784267 0.186597 0.0392865 0 0 -1.29425 0 0 0 0 0 0 0.01 
193 1 20 -0.00784267 0.186597 0.0482865 0 0 -1.29425 0 0 0 0 0 0 0.01 
194 1 20 -0.00784267 0.186597 0.0572865 0 0 -1.29425 0 0 0 0 0 0 0.01 
195 1 20 -0.00784267 0.186597 0.0662865 0 0 -1.29425 0 0 0 0 0 0 0.01 
196 1 20 -0.00784267 0.186597 0.0752865 0 0 -1.29425 0 0 0 0 0 0 0.01 
197 1 20 -0.00784267 0.186597 0.0842865 0 0 -1.29425 0 0 0 0 0 0 0.01 
198 1 20 -0.00784267 0.186597 0.0932865 0 0 -1.29425 0 0 0 0 0 0 0.01 
199 1 20 -0.00784267 0.186597 0.102286 0 0 -1.29425 0 0 0 0 0 0 0.01 
200 1 20 -0.00784267 0.186597 0.111286 0 0 -1.29425 0 0 0 0 0 0 0.01 
201 1 21 0.0195457 0.00369696 0.03075 0 0 -1.29425 0 0 0 0 0 0 0.01 
202 1 21 0.0195457 0.00369696 0.03975 0 0 -1.29425 0 0 0 0 0 0 0.01 
203 1 21 0.0195457 0.00369696 0.04875 0 0 -1.29425 0 0 0 0 0 0 0.01 
204 1 21 0.0195457 0.00369696 0.05775 0 0 -1.29425 0 0 0 0 0 0 0.01 
205 1 21 0.0195457 0.00369696 0.06675 0 0 -1.29425 0 0 0 0 0 0 0.01 
206 1 21 0.0195457 0.00369696 0.07575 0 0 -1.29425 0 0 0 0 0 0 0.01 
207 1 21 0.0195457 0.00369696 0.08475 0 0 -1.29425 0 0 0 0 0 0 0.01 
208 1 21 0.0195457 0.00369696 0.09375 0 0 -1.29425 0 0 0 0 0 0 0.01 
209 1 21 0.0195457 0.00369696 0.10275 0 0 -1.29425 0 0 0 0 0 0 0.01 
210 1 21 0.0195457 0.00369696 0.11175 0 0 -1.29425 0 0 0 0 0 0 0.01 
211 1 22 0.00289755 0.197355 0.21286 0 0 -1.29425 0 0 0 0 0 0 0.01 
212 1 22 0.00289755 0.197355 0.22186 0 0 -1.29425 0 0 0 0 0 0 0.01 
213 1 22 0.00289755 0.197355 0.23086 0 0 -1.29425 0 0 0 0 0 0 0.01 
214 1 22 0.00289755 0.197355 0.23986 0 0 -1.29425 0 0 0 0 0 0 0.01 
215 1 22 0.00289755 0.197355 0.24886 0 0 -1.29425 0 0 0 0 0 0 0.01 
216 1 22 0.00289755 0.197355 0.25786 0 0 -1.29425 0 0 0 0 0 0 0.01 
217 1 22 0.00289755 0.197355 0.26686 0 0 -1.29425 0 0 0 0 0 0 0.01 
218 1 22 0.00289755 0.197355 0.27586 0 0 -1.29425 0 0 0 0 0 0 0.01 
219 1 22 0.00289755 0.197355 0.28486 0 0 -1.29425 0 0 0 0 0 0 0.01 
220 1 22 0.00289755 0.197355 0.29386 0 0 -1.29425 0 0 0 0 0 0 0.01 
221 1 23 0.214349 0.0539113 0.302392 0 0 -1.29425 0 0 0 0 0 0 0.01 
222 1 23 0.214349 0.0539113 0.311392 0 0 -1.29425 0 0 0 0 0 0 0.01 
223 1 23 0.214349 0.0539113 0.320392 0 0 -1.29425 0 0 0 0 0 0 0.01 
224 1 23 0.214349 0.0539113 0.329392 0 0 -1.29425 0 0 0 0 0 0 0.01 
225 1 23 0.214349 0.0539113 0.338392 0 0 -1.29425 0 0 0 0 0 0 0.01 
226 1 23 0.214349 0.0539113 0.347392 0 0 -1.29425 0 0 0 0 0 0 0.01 
227 1 23 0.214349 0.0539113 0.356392 0 0 -1.29425 0 0 0 0 0 0 0.01 
228 1 23 0.214349 0.0539113 0.365392 0 0 -1.29425 0 0 0 0 0 0 0.01 
229 1 23 0.214349 0.0539113 0.374392 0 0 -1.29425 0 0 0 0 0 0 0.01 
230 1 23 0.214349 0.0539113 0.383392 0 0 -1.29425 0 0 0 0 0 0 0.01 
231 1 24 0.157258 0.0254774 0.068846 0 0 -1.29425 0 0 0 0 0 0 0.01 
232 1 24 0.157258 0.0254774 0.077846 0 0 -1.29425 0 0 0 0 0 0 0.01 
233 1 24 0.157258 0.0254774 0.086846 0 0 -1.29425 0 0 0 0 0 0 0.01 
234 1 24 0.157258 0.0254774 0.095846 0 0 -1.29425 0 0 0 0 0 0 0.01 
235 1 24 0.157258 0.0254774 0.104846 0 0 -1.29425 0 0 0 0 0 0 0.01 
236 1 24 0.157258 0.0254774 0.113846 0 0 -1.29425 0 0 0 0 0 0 0.01 
237 1 24 0.157258 0.0254774 0.122846 0 0 -1.29425 0 0 0 0 0 0 0.01 
238 1 24 0.157258 0.0254774 0.131846 0 0 -1.29425 0 0 0 0 0 0 0.01 
239 1 24 0.157258 0.0254774 0.140846 0 0 -1.29425 0 0 0 0 0 0 0.01 
240 1 24 0.157258 0.0254774 0.149846 0 0 -1.29425 0 0 0 0 0 0 0.01 
241 1 25 0.134963 -0.174125 0.240216 0 0 -1.29425 0 0 0 0 0 0 0.01 
242 1 25 0.134963 -0.174125 0.249216 0 0 -1.29425 0 0 0 0 0 0 0.01 
243 1 25 0.134963 -0.174125 0.258216 0 0 -1.29425 0 0 0 0 0 0 0.01 
244 1 25 0.134963 -0.174125 0.267216 0 0 -1.29425 0 0 0 0 0 0 0.01 
245 1 25 0.134963 -0.174125 0.276216 0 0 -1.29425 0 0 0 0 0 0 0.01 
246 1 25 0.134963 -0.174125 0.285216 0 0 -1.29425 0 0 0 0 0 0 0.01 
247 1 25 0.134963 -0.174125 0.294216 0 0 -1.29425 0 0 0 0 0 0 0.01 
248 1 25 0.134963 -0.174125 0.303216 0 0 -1.29425 0 0 0 0 0 0 0.01 
249 1 25 0.134963 -0.174125 0.312216 0 0 -1.29425 0 0 0 0 0 0 0.01 
250 1 25 0.134963 -0.174125 0.321216 0 0 -1.29425 0 0 0 0 0 0 0.01 
251 1 26 -0.00920263 -0.17024 0.113889 0 0 -1.29425 0 0 0 0 0 0 0.01 
252 1 26 -0.00920263 -0.17024 0.122889 0 0 -1.29425 0 0 0 0 0 0 0.01 
253 1 26 -0.00920263 -0.17024 0.131889 0 0 -1.29425 0 0 0 0 0 0 0.01 
254 1 26 -0.00920263 -0.17024 0.140889 0 0 -1.29425 0 0 0 0 0 0 0.01 
255 1 26 -0.00920263 -0.17024 0.149889 0 0 -1.29425 0 0 0 0 0 0 0.01 
256 1 26 -0.00920263 -0.17024 0.158889 0 0 -1.29425 0 0 0 0 0 0 0.01 
257 1 26 -0.00920263 -0.17024 0.167889 0 0 -1.29425 0 0 0 0 0 0 0.01 
258 1 26 -0.00920263 -0.17024 0.176889 0 0 -1.29425 0 0 0 0 0 0 0.01 
259 1 26 -0.00920263 -0.17024 0.185889 0 0 -1.29425 0 0 0 0 0 0 0.01 
260 1 26 -0.00920263 -0.17024 0.194889 0 0 -1.29425 0 0 0 0 0 0 0.01 
261 1 27 -0.145674 0.150591 0.237406 0 0 -1.29425 0 0 0 0 0 0 0.01 
262 1 27 -0.145674 0.150591 0.246406 0 0 -1.29425 0 0 0 0 0 0 0.01 
263 1 27 -0.145674 0.150591 0.255406 0 0 -1.29425 0 0 0 0 0 0 0.01 
264 1 27 -0.145674 0.150591 0.264406 0 0 -1.29425 0 0 0 0 0 0 0.01 
265 1 27 -0.145674 0.150591 0.273406 0 0 -1.29425 0 0 0 0 0 0 0.01 
266 1 27 -0.145674 0.150591 0.282406 0 0 -1.29425 0 0 0 0 0 0 0.01 
267 1 27 -0.145674 0.150591 0.291406 0 0 -1.29425 0 0 0 0 0 0 0.01 
268 1 27 -0.145674 0.150591 0.300406 0 0 -1.29425 0 0 0 0 0 0 0.01 
269 1 27 -0.145674 0.150591 0.309406 0 0 -1.29425 0 0 0 0 0 0 0.01 
270 1 27 -0.145674 0.150591 0.318406 0 0 -1.29425 0 0 0 0 0 0 0.01 
271 1 28 0.0144186 -0.169101 0.197969 0 0 -1.29425 0 0 0 0 0 0 0.01 
272 1 28 0.0144186 -0.169101 0.206969 0 0 -1.29425 0 0 0 0 0 0 0.01 
273 1 28 0.0144186 -0.169101 0.215969 0 0 -1.29425 0 0 0 0 0 0 0.01 
274 1 28 0.0144186 -0.169101 0.224969 0 0 -1.29425 0 0 0 0 0 0 0.01 
275 1 28 0.0144186 -0.169101 0.233969 0 0 -1.29425 0 0 0 0 0 0 0.01 
276 1 28 0.0144186 -0.169101 0.242969 0 0 -1.29425 0 0 0 0 0 0 0.01 
277 1 28 0.0144186 -0.169101 0.251969 0 0 -1.29425 0 0 0 0 0 0 0.01 
278 1 28 0.0144186 -0.169101 0.260969 0 0 -1.29425 0 0 0 0 0 0 0.01 
279 1 28 0.0144186 -0.169101 0.269969 0 0 -1.29425 0 0 0 0 0 0 0.01 
280 1 28 0.0144186 -0.169101 0.278969 0 0 -1.29425 0 0 0 0 0 0 0.01 
281 1 29 0.0770886 0.126327 0.0566297 0 0 -1.29425 0 0 0 0 0 0 0.01 
282 1 29 0.0770886 0.126327 0.0656297 0 0 -1.29425 0 0 0 0 0 0 0.01 
283 1 29 0.0770886 0.126327 0.0746297 0 0 -1.29425 0 0 0 0 0 0 0.01 
284 1 29 0.0770886 0.126327 0.0836297 0 0 -1.29425 0 0 0 0 0 0 0.01 
285 1 29 0.0770886 0.126327 0.0926297 0 0 -1.29425 0 0 0 0 0 0 0.01 
286 1 29 0.0770886 0.126327 0.10163 0 0 -1.29425 0 0 0 0 0 0 0.01 
287 1 29 0.0770886 0.126327 0.11063 0 0 -1.29425 0 0 0 0 0 0 0.01 
288 1 29 0.0770886 0.126327 0.11963 0 0 -1.29425 0 0 0 0 0 0 0.01 
289 1 29 0.0770886 0.126327 0.12863 0 0 -1.29425 0 0 0 0 0 0 0.01 
290 1 29 0.0770886 0.126327 0.13763 0 0 -1.29425 0 0 0 0 0 0 0.01 
291 1 30 -0.0622987 -0.0566083 0.300049 0 0 -1.29425 0 0 0 0 0 0 0.01 
292 1 30 -0.0622987 -0.0566083 0.309049 0 0 -1.29425 0 0 0 0 0 0 0.01 
293 1 30 -0.0622987 -0.0566083 0.318049 0 0 -1.29425 0 0 0 0 0 0 0.01 
294 1 30 -0.0622987 -0.0566083 0.327049 0 0 -1.29425 0 0 0 0 0 0 0.01 
295 1 30 -0.0622987 -0.0566083 0.336049 0 0 -1.29425 0 0 0 0 0 0 0.01 
296 1 30 -0.0622987 -0.0566083 0.345049 0 0 -1.29425 0 0 0 0 0 0 0.01 
297 1 30 -0.0622987 -0.0566083 0.354049 0 0 -1.29425 0 0 0 0 0 0 0.01 
298 1 30 -0.0622987 -0.0566083 0.363049 0 0 -1.29425 0 0 0 0 0 0 0.01 
299 1 30 -0.0622987 -0.0566083 0.372049 0 0 -1.29425 0 0 0 0 0 0 0.01 
300 1 30 -0.0622987 -0.0566083 0.381049 0 0 -1.29425 0 0 0 0 0 0 0.01 
301 1 31 0.0111005 0.0641788 0.0420856 0 0 -1.29425 0 0 0 0 0 0 0.01 
302 1 31 0.0111005 0.0641788 0.0510856 0 0 -1.29425 0 0 0 0 0 0 0.01 
303 1 31 0.0111005 0.0641788 0.0600856 0 0 -1.29425 0 0 0 0 0 0 0.01 
304 1 31 0.0111005 0.0641788 0.0690856 0 0 -1.29425 0 0 0 0 0 0 0.01 
305 1 31 0.0111005 0.0641788 0.0780856 0 0 -1.29425 0 0 0 0 0 0 0.01 
306 1 31 0.0111005 0.0641788 0.0870856 0 0 -1.29425 0 0 0 0 0 0 0.01 
307 1 31 0.0111005 0.0641788 0.0960856 0 0 -1.29425 0 0 0 0 0 0 0.01 
308 1 31 0.0111005 0.0641788 0.105086 0 0 -1.29425 0 0 0 0 0 0 0.01 
309 1 31 0.0111005 0.0641788 0.114086 0 0 -1.29425 0 0 0 0 0 0 0.01 
310 1 31 0.0111005 0.0641788 0.123086 0 0 -1.29425 0 0 0 0 0 0 0.01 
311 1 32 0.0320384 -0.0315173 0.123295 0 0 -1.29425 0 0 0 0 0 0 0.01 
312 1 32 0.0320384 -0.0315173 0.132295 0 0 -1.29425 0 0 0 0 0 0 0.01 
313 1 32 0.0320384 -0.0315173 0.141295 0 0 -1.29425 0 0 0 0 0 0 0.01 
314 1 32 0.0320384 -0.0315173 0.150295 0 0 -1.29425 0 0 0 0 0 0 0.01 
315 1 32 0.0320384 -0.0315173 0.159295 0 0 -1.29425 0 0 0 0 0 0 0.01 
316 1 32 0.0320384 -0.0315173 0.168295 0 0 -1.29425 0 0 0 0 0 0 0.01 
317 1 32 0.0320384 -0.0315173 0.177295 0 0 -1.29425 0 0 0 0 0 0 0.01 
318 1 32 0.0320384 -0.0315173 0.186295 0 0 -1.29425 0 0 0 0 0 0 0.01 
319 1 32 0.0320384 -0.0315173 0.195295 0 0 -1.29425 0 0 0 0 0 0 0.01 
320 1 32 0.0320384 -0.0315173 0.204295 0 0 -1.29425 0 0 0 0 0 0 0.01 
321 1 33 -0.164367 -0.0225208 0.245551 0 0 -1.29425 0 0 0 0 0 0 0.01 
322 1 33 -0.164367 -0.0225208 0.254551 0 0 -1.29425 0 0 0 0 0 0 0.01 
323 1 33 -0.164367 -0.0225208 0.263551 0 0 -1.29425 0 0 0 0 0 0 0.01 
324 1 33 -0.164367 -0.0225208 0.272551 0 0 -1.29425 0 0 0 0 0 0 0.01 
325 1 33 -0.164367 -0.0225208 0.281551 0 0 -1.29425 0 0 0 0 0 0 0.01 
326 1 33 -0.164367 -0.0225208 0.290551 0 0 -1.29425 0 0 0 0 0 0 0.01 
327 1 33 -0.164367 -0.0225208 0.299551 0 0 -1.29425 0 0 0 0 0 0 0.01 
328 1 33 -0.164367 -0.0225208 0.308551 0 0 -1.29425 0 0 0 0 0 0 0.01 
329 1 33 -0.164367 -0.0225208 0.317551 0 0 -1.29425 0 0 0 0 0 0 0.01 
330 1 33 -0.164367 -0.0225208 0.326551 0 0 -1.29425 0 0 0 0 0 0 0.01 
331 1 34 -0.0753724 0.213735 0.096155 0 0 -1.29425 0 0 0 0 0 0 0.01 
332 1 34 -0.0753724 0.213735 0.105155 0 0 -1.29425 0 0 0 0 0 0 0.01 
333 1 34 -0.0753724 0.213735 0.114155 0 0 -1.29425 0 0 0 0 0 0 0.01 
334 1 34 -0.0753724 0.213735 0.123155 0 0 -1.29425 0 0 0 0 0 0 0.01 
335 1 34 -0.0753724 0.213735 0.132155 0 0 -1.29425 0 0 0 0 0 0 0.01 
336 1 34 -0.0753724 0.213735 0.141155 0 0 -1.29425 0 0 0 0 0 0 0.01 
337 1 34 -0.0753724 0.213735 0.150155 0 0 -1.29425 0 0 0 0 0 0 0.01 
338 1 34 -0.0753724 0.213735 0.159155 0 0 -1.29425 0 0 0 0 0 0 0.01 
339 1 34 -0.0753724 0.213735 0.168155 0 0 -1.29425 0 0 0 0 0 0 0.01 
340 1 34 -0.0753724 0.213735 0.177155 0 0 -1.29425 0 0 0 0 0 0 0.01 
341 1 35 0.107324 -0.21107 0.276218 0 0 -1.29425 0 0 0 0 0 0 0.01 
342 1 35 0.107324 -0.21107 0.285218 0 0 -1.29425 0 0 0 0 0 0 0.01 
343 1 35 0.107324 -0.21107 0.294218 0 0 -1.29425 0 0 0 0 0 0 0.01 
344 1 35 0.107324 -0.21107 0.303218 0 0 -1.29425 0 0 0 0 0 0 0.01 
345 1 35 0.107324 -0.21107 0.312218 0 0 -1.29425 0 0 0 0 0 0 0.01 
346 1 35 0.107324 -0.21107 0.321218 0 0 -1.29425 0 0 0 0 0 0 0.01 
347 1 35 0.107324 -0.21107 0.330218 0 0 -1.29425 0 0 0 0 0 0 0.01 
348 1 35 0.107324 -0.21107 0.339218 0 0 -1.29425 0 0 0 0 0 0 0.01 
349 1 35 0.107324 -0.21107 0.348218 0 0 -1.29425 0 0 0 0 0 0 0.01 
350 1 35 0.107324 -0.21107 0.357218 0 0 -1.29425 0 0 0 0 0 0 0.01 
351 1 36 -0.0369915 -0.217979 0.209357 0 0 -1.29425 0 0 0 0 0 0 0.01 
352 1 36 -0.0369915 -0.217979 0.218357 0 0 -1.29425 0 0 0 0 0 0 0.01 
353 1 36 -0.0369915 -0.217979 0.227357 0 0 -1.29425 0 0 0 0 0 0 0.01 
354 1 36 -0.0369915 -0.217979 0.236357 0 0 -1.29425 0 0 0 0 0 0 0.01 
355 1 36 -0.0369915 -0.217979 0.245357 0 0 -1.29425 0 0 0 0 0 0 0.01 
356 1 36 -0.0369915 -0.217979 0.254357 0 0 -1.29425 0 0 0 0 0 0 0.01 
357 1 36 -0.0369915 -0.217979 0.263357 0 0 -1.29425 0 0 0 0 0 0 0.01 
358 1 36 -0.0369915 -0.217979 0.272357 0 0 -1.29425 0 0 0 0 0 0 0.01 
359 1 36 -0.0369915 -0.217979 0.281357 0 0 -1.29425 0 0 0 0 0 0 0.01 
360 1 36 -0.0369915 -0.217979 0.290357 0 0 -1.29425 0 0 0 0 0 0 0.01 
361 1 37 0.0719128 0.13673 0.259093 0 0 -1.29425 0 0 0 0 0 0 0.01 
362 1 37 0.0719128 0.13673 0.268093 0 0 -1.29425 0 0 0 0 0 0 0.01 
363 1 37 0.0719128 0.13673 0.277093 0 0 -1.29425 0 0 0 0 0 0 0.01 
364 1 37 0.0719128 0.13673 0.286093 0 0 -1.29425 0 0 0 0 0 0 0.01 
365 1 37 0.0719128 0.13673 0.295093 0 0 -1.29425 0 0 0 0 0 0 0.01 
366 1 37 0.0719128 0.13673 0.304093 0 0 -1.29425 0 0 0 0 0 0 0.01 
367 1 37 0.0719128 0.13673 0.313093 0 0 -1.29425 0 0 0 0 0 0 0.01 
368 1 37 0.0719128 0.13673 0.322093 0 0 -1.29425 0 0 0 0 0 0 0.01 
369 1 37 0.0719128 0.13673 0.331093 0 0 -1.29425 0 0 0 0 0 0 0.01 
370 1 37 0.0719128 0.13673 0.340093 0 0 -1.29425 0 0 0 0 0 0 0.01 
371 1 38 -0.156963 -0.0782603 0.0576403 0 0 -1.29425 0 0 0 0 0 0 0.01 
372 1 38 -0.156963 -0.0782603 0.0666403 0 0 -1.29425 0 0 0 0 0 0 0.01 
373 1 38 -0.156963 -0.0782603 0.0756403 0 0 -1.29425 0 0 0 0 0 0 0.01 
374 1 38 -0.156963 -0.0782603 0.0846403 0 0 -1.29425 0 0 0 0 0 0 0.01 
375 1 38 -0.156963 -0.0782603 0.0936403 0 0 -1.29425 0 0 0 0 0 0 0.01 
376 1 38 -0.156963 -0.0782603 0.10264 0 0 -1.29425 0 0 0 0 0 0 0.01 
377 1 38 -0.156963 -0.0782603 0.11164 0 0 -1.29425 0 0 0 0 0 0 0.01 
378 1 38 -0.156963 -0.0782603 0.12064 0 0 -1.29425 0 0 0 0 0 0 0.01 
379 1 38 -0.156963 -0.0782603 0.12964 0 0 -1.29425 0 0 0 0 0 0 0.01 
380 1 38 -0.156963 -0.0782603 0.13864 0 0 -1.29425 0 0 0 0 0 0 0.01 
381 1 39 -0.132731 0.194202 0.218155 0 0 -1.29425 0 0 0 0 0 0 0.01 
382 1 39 -0.132731 0.194202 0.227155 0 0 -1.29425 0 0 0 0 0 0 0.01 
383 1 39 -0.132731 0.194202 0.236155 0 0 -1.29425 0 0 0 0 0 0 0.01 
384 1 39 -0.132731 0.194202 0.245155 0 0 -1.29425 0 0 0 0 0 0 0.01 
385 1 39 -0.132731 0.194202 0.254155 0 0 -1.29425 0 0 0 0 0 0 0.01 
386 1 39 -0.132731 0.194202 0.263155 0 0 -1.29425 0 0 0 0 0 0 0.01 
387 1 39 -0.132731 0.194202 0.272155 0 0 -1.29425 0 0 0 0 0 0 0.01 
388 1 39 -0.132731 0.194202 0.281155 0 0 -1.29425 0 0 0 0 0 0 0.01 
389 1 39 -0.132731 0.194202 0.290155 0 0 -1.29425 0 0 0 0 0 0 0.01 
390 1 39 -0.132731 0.194202 0.299155 0 0 -1.29425 0 0 0 0 0 0 0.01 
391 1 40 0.0157305 -0.119676 0.317357 0 0 -1.29425 0 0 0 0 0 0 0.01 
392 1 40 0.0157305 -0.119676 0.326357 0 0 -1.29425 0 0 0 0 0 0 0.01 
393 1 40 0.0157305 -0.119676 0.335357 0 0 -1.29425 0 0 0 0 0 0 0.01 
394 1 40 0.0157305 -0.119676 0.344357 0 0 -1.29425 0 0 0 0 0 0 0.01 
395 1 40 0.0157305 -0.119676 0.353357 0 0 -1.29425 0 0 0 0 0 0 0.01 
396 1 40 0.0157305 -0.119676 0.362357 0 0 -1.29425 0 0 0 0 0 0 0.01 
397 1 40 0.0157305 -0.119676 0.371357 0 0 -1.29425 0 0 0 0 0 0 0.01 
398 1 40 0.0157305 -0.119676 0.380357 0 0 -1.29425 0 0 0 0 0 0 0.01 
399 1 40 0.0157305 -0.119676 0.389357 0 0 -1.29425 0 0 0 0 0 0 0.01 
400 1 40 0.0157305 -0.119676 0.398357 0 0 -1.29425 0 0 0 0 0 0 0.01 
401 1 41 -0.158558 0.109248 0.0309151 0 0 -1.29425 0 0 0 0 0 0 0.01 
402 1 41 -0.158558 0.109248 0.0399151 0 0 -1.29425 0 0 0 0 0 0 0.01 
403 1 41 -0.158558 0.109248 0.0489151 0 0 -1.29425 0 0 0 0 0 0 0.01 
404 1 41 -0.158558 0.109248 0.0579151 0 0 -1.29425 0 0 0 0 0 0 0.01 
405 1 41 -0.158558 0.109248 0.0669151 0 0 -1.29425 0 0 0 0 0 0 0.01 
406 1 41 -0.158558 0.109248 0.0759151 0 0 -1.29425 0 0 0 0 0 0 0.01 
407 1 41 -0.158558 0.109248 0.0849151 0 0 -1.29425 0 0 0 0 0 0 0.01 
408 1 41 -0.158558 0.109248 0.0939151 0 0 -1.29425 0 0 0 0 0 0 0.01 
409 1 41 -0.158558 0.109248 0.102915 0 0 -1.29425 0 0 0 0 0 0 0.01 
410 1 41 -0.158558 0.109248 0.111915 0 0 -1.29425 0 0 0 0 0 0 0.01 
411 1 42 0.127323 -0.0832319 0.323119 0 0 -1.29425 0 0 0 0 0 0 0.01 
412 1 42 0.127323 -0.0832319 0.332119 0 0 -1.29425 0 0 0 0 0 0 0.01 
413 1 42 0.127323 -0.0832319 0.341119 0 0 -1.29425 0 0 0 0 0 0 0.01 
414 1 42 0.127323 -0.0832319 0.350119 0 0 -1.29425 0 0 0 0 0 0 0.01 
415 1 42 0.127323 -0.0832319 0.359119 0 0 -1.29425 0 0 0 0 0 0 0.01 
416 1 42 0.127323 -0.0832319 0.368119 0 0 -1.29425 0 0 0 0 0 0 0.01 
417 1 42 0.127323 -0.0832319 0.377119 0 0 -1.29425 0 0 0 0 0 0 0.01 
418 1 42 0.127323 -0.0832319 0.386119 0 0 -1.29425 0 0 0 0 0 0 0.01 
419 1 42 0.127323 -0.0832319 0.395119 0 0 -1.29425 0 0 0 0 0 0 0.01 
420 1 42 0.127323 -0.0832319 0.404119 0 0 -1.29425 0 0 0 0 0 0 0.01 
421 1 43 0.136585 0.0746672 0.208648 0 0 -1.29425 0 0 0 0 0 0 0.01 
422 1 43 0.136585 0.0746672 0.217648 0 0 -1.29425 0 0 0 0 0 0 0.01 
423 1 43 0.136585 0.0746672 0.226648 0 0 -1.29425 0 0 0 0 0 0 0.01 
424 1 43 0.136585 0.0746672 0.235648 0 0 -1.29425 0 0 0 0 0 0 0.01 
425 1 43 0.136585 0.0746672 0.244648 0 0 -1.29425 0 0 0 0 0 0 0.01 
426 1 43 0.136585 0.0746672 0.253648 0 0 -1.29425 0 0 0 0 0 0 0.01 
427 1 43 0.136585 0.0746672 0.262648 0 0 -1.29425 0 0 0 0 0 0 0.01 
428 1 43 0.136585 0.0746672 0.271648 0 0 -1.29425 0 0 0 0 0 0 0.01 