ITEM: TIMESTEP
4000
ITEM: NUMBER OF ATOMS
6300
ITEM: BOX BOUNDS mm mm mm
-0.3 0.3
-0.3 0.3
0 0.5
ITEM: ATOMS id type mol x y z vx vy vz fx fy fz omegax omegay omegaz radius 
1 1 1 -0.115317 -0.129414 0.196348 0 0 -1.39235 0 0 0 0 0 0 0.01 
2 1 1 -0.115317 -0.129414 0.205348 0 0 -1.39235 0 0 0 0 0 0 0.01 
3 1 1 -0.115317 -0.129414 0.214348 0 0 -1.39235 0 0 0 0 0 0 0.01 
4 1 1 -0.115317 -0.129414 0.223348 0 0 -1.39235 0 0 0 0 0 0 0.01 
5 1 1 -0.115317 -0.129414 0.232348 0 0 -1.39235 0 0 0 0 0 0 0.01 
6 1 1 -0.115317 -0.129414 0.241348 0 0 -1.39235 0 0 0 0 0 0 0.01 
7 1 1 -0.115317 -0.129414 0.250348 0 0 -1.39235 0 0 0 0 0 0 0.01 
8 1 1 -0.115317 -0.129414 0.259348 0 0 -1.39235 0 0 0 0 0 0 0.01 
9 1 1 -0.115317 -0.129414 0.268348 0 0 -1.39235 0 0 0 0 0 0 0.01 
10 1 1 -0.115317 -0.129414 0.277348 0 0 -1.39235 0 0 0 0 0 0 0.01 
11 1 2 -0.0460582 -0.101391 0.185888 0 0 -1.39235 0 0 0 0 0 0 0.01 
12 1 2 -0.0460582 -0.101391 0.194888 0 0 -1.39235 0 0 0 0 0 0 0.01 
13 1 2 -0.0460582 -0.101391 0.203888 0 0 -1.39235 0 0 0 0 0 0 0.01 
14 1 2 -0.0460582 -0.101391 0.212888 0 0 -1.39235 0 0 0 0 0 0 0.01 
15 1 2 -0.0460582 -0.101391 0.221888 0 0 -1.39235 0 0 0 0 0 0 0.01 
16 1 2 -0.0460582 -0.101391 0.230888 0 0 -1.39235 0 0 0 0 0 0 0.01 
17 1 2 -0.0460582 -0.101391 0.239888 0 0 -1.39235 0 0 0 0 0 0 0.01 
18 1 2 -0.0460582 -0.101391 0.248888 0 0 -1.39235 0 0 0 0 0 0 0.01 
19 1 2 -0.0460582 -0.101391 0.257888 0 0 -1.39235 0 0 0 0 0 0 0.01 
20 1 2 -0.0460582 -0.101391 0.266888 0 0 -1.39235 0 0 0 0 0 0 0.01 
21 1 3 -0.0433468 -0.0313624 0.171946 0 0 -1.39235 0 0 0 0 0 0 0.01 
22 1 3 -0.0433468 -0.0313624 0.180946 0 0 -1.39235 0 0 0 0 0 0 0.01 
23 1 3 -0.0433468 -0.0313624 0.189946 0 0 -1.39235 0 0 0 0 0 0 0.01 
24 1 3 -0.0433468 -0.0313624 0.198946 0 0 -1.39235 0 0 0 0 0 0 0.01 
25 1 3 -0.0433468 -0.0313624 0.207946 0 0 -1.39235 0 0 0 0 0 0 0.01 
26 1 3 -0.0433468 -0.0313624 0.216946 0 0 -1.39235 0 0 0 0 0 0 0.01 
27 1 3 -0.0433468 -0.0313624 0.225946 0 0 -1.39235 0 0 0 0 0 0 0.01 
28 1 3 -0.0433468 -0.0313624 0.234946 0 0 -1.39235 0 0 0 0 0 0 0.01 
29 1 3 -0.0433468 -0.0313624 0.243946 0 0 -1.39235 0 0 0 0 0 0 0.01 
30 1 3 -0.0433468 -0.0313624 0.252946 0 0 -1.39235 0 0 0 0 0 0 0.01 
31 1 4 -0.0929903 0.110329 0.112708 0 0 -1.39235 0 0 0 0 0 0 0.01 
32 1 4 -0.0929903 0.110329 0.121708 0 0 -1.39235 0 0 0 0 0 0 0.01 
33 1 4 -0.0929903 0.110329 0.130708 0 0 -1.39235 0 0 0 0 0 0 0.01 
34 1 4 -0.0929903 0.110329 0.139708 0 0 -1.39235 0 0 0 0 0 0 0.01 
35 1 4 -0.0929903 0.110329 0.148708 0 0 -1.39235 0 0 0 0 0 0 0.01 
36 1 4 -0.0929903 0.110329 0.157708 0 0 -1.39235 0 0 0 0 0 0 0.01 
37 1 4 -0.0929903 0.110329 0.166708 0 0 -1.39235 0 0 0 0 0 0 0.01 
38 1 4 -0.0929903 0.110329 0.175708 0 0 -1.39235 0 0 0 0 0 0 0.01 
39 1 4 -0.0929903 0.110329 0.184708 0 0 -1.39235 0 0 0 0 0 0 0.01 
40 1 4 -0.0929903 0.110329 0.193708 0 0 -1.39235 0 0 0 0 0 0 0.01 
41 1 5 0.0772217 -0.137096 0.130579 0 0 -1.39235 0 0 0 0 0 0 0.01 
42 1 5 0.0772217 -0.137096 0.139579 0 0 -1.39235 0 0 0 0 0 0 0.01 
43 1 5 0.0772217 -0.137096 0.148579 0 0 -1.39235 0 0 0 0 0 0 0.01 
44 1 5 0.0772217 -0.137096 0.157579 0 0 -1.39235 0 0 0 0 0 0 0.01 
45 1 5 0.0772217 -0.137096 0.166579 0 0 -1.39235 0 0 0 0 0 0 0.01 
46 1 5 0.0772217 -0.137096 0.175579 0 0 -1.39235 0 0 0 0 0 0 0.01 
47 1 5 0.0772217 -0.137096 0.184579 0 0 -1.39235 0 0 0 0 0 0 0.01 
48 1 5 0.0772217 -0.137096 0.193579 0 0 -1.39235 0 0 0 0 0 0 0.01 
49 1 5 0.0772217 -0.137096 0.202579 0 0 -1.39235 0 0 0 0 0 0 0.01 
50 1 5 0.0772217 -0.137096 0.211579 0 0 -1.39235 0 0 0 0 0 0 0.01 
51 1 6 0.170849 -0.044483 0.161148 0 0 -1.39235 0 0 0 0 0 0 0.01 
52 1 6 0.170849 -0.044483 0.170148 0 0 -1.39235 0 0 0 0 0 0 0.01 
53 1 6 0.170849 -0.044483 0.179148 0 0 -1.39235 0 0 0 0 0 0 0.01 
54 1 6 0.170849 -0.044483 0.188148 0 0 -1.39235 0 0 0 0 0 0 0.01 
55 1 6 0.170849 -0.044483 0.197148 0 0 -1.39235 0 0 0 0 0 0 0.01 
56 1 6 0.170849 -0.044483 0.206148 0 0 -1.39235 0 0 0 0 0 0 0.01 
57 1 6 0.170849 -0.044483 0.215148 0 0 -1.39235 0 0 0 0 0 0 0.01 
58 1 6 0.170849 -0.044483 0.224148 0 0 -1.39235 0 0 0 0 0 0 0.01 
59 1 6 0.170849 -0.044483 0.233148 0 0 -1.39235 0 0 0 0 0 0 0.01 
60 1 6 0.170849 -0.044483 0.242148 0 0 -1.39235 0 0 0 0 0 0 0.01 
61 1 7 -0.0369062 0.215855 0.163671 0 0 -1.39235 0 0 0 0 0 0 0.01 
62 1 7 -0.0369062 0.215855 0.172671 0 0 -1.39235 0 0 0 0 0 0 0.01 
63 1 7 -0.0369062 0.215855 0.181671 0 0 -1.39235 0 0 0 0 0 0 0.01 
64 1 7 -0.0369062 0.215855 0.190671 0 0 -1.39235 0 0 0 0 0 0 0.01 
65 1 7 -0.0369062 0.215855 0.199671 0 0 -1.39235 0 0 0 0 0 0 0.01 
66 1 7 -0.0369062 0.215855 0.208671 0 0 -1.39235 0 0 0 0 0 0 0.01 
67 1 7 -0.0369062 0.215855 0.217671 0 0 -1.39235 0 0 0 0 0 0 0.01 
68 1 7 -0.0369062 0.215855 0.226671 0 0 -1.39235 0 0 0 0 0 0 0.01 
69 1 7 -0.0369062 0.215855 0.235671 0 0 -1.39235 0 0 0 0 0 0 0.01 
70 1 7 -0.0369062 0.215855 0.244671 0 0 -1.39235 0 0 0 0 0 0 0.01 
71 1 8 0.122768 -0.136526 0.178528 0 0 -1.39235 0 0 0 0 0 0 0.01 
72 1 8 0.122768 -0.136526 0.187528 0 0 -1.39235 0 0 0 0 0 0 0.01 
73 1 8 0.122768 -0.136526 0.196528 0 0 -1.39235 0 0 0 0 0 0 0.01 
74 1 8 0.122768 -0.136526 0.205528 0 0 -1.39235 0 0 0 0 0 0 0.01 
75 1 8 0.122768 -0.136526 0.214528 0 0 -1.39235 0 0 0 0 0 0 0.01 
76 1 8 0.122768 -0.136526 0.223528 0 0 -1.39235 0 0 0 0 0 0 0.01 
77 1 8 0.122768 -0.136526 0.232528 0 0 -1.39235 0 0 0 0 0 0 0.01 
78 1 8 0.122768 -0.136526 0.241528 0 0 -1.39235 0 0 0 0 0 0 0.01 
79 1 8 0.122768 -0.136526 0.250528 0 0 -1.39235 0 0 0 0 0 0 0.01 
80 1 8 0.122768 -0.136526 0.259528 0 0 -1.39235 0 0 0 0 0 0 0.01 
81 1 9 -0.103348 0.0216352 0.310518 0 0 -1.39235 0 0 0 0 0 0 0.01 
82 1 9 -0.103348 0.0216352 0.319518 0 0 -1.39235 0 0 0 0 0 0 0.01 
83 1 9 -0.103348 0.0216352 0.328518 0 0 -1.39235 0 0 0 0 0 0 0.01 
84 1 9 -0.103348 0.0216352 0.337518 0 0 -1.39235 0 0 0 0 0 0 0.01 
85 1 9 -0.103348 0.0216352 0.346518 0 0 -1.39235 0 0 0 0 0 0 0.01 
86 1 9 -0.103348 0.0216352 0.355518 0 0 -1.39235 0 0 0 0 0 0 0.01 
87 1 9 -0.103348 0.0216352 0.364518 0 0 -1.39235 0 0 0 0 0 0 0.01 
88 1 9 -0.103348 0.0216352 0.373518 0 0 -1.39235 0 0 0 0 0 0 0.01 
89 1 9 -0.103348 0.0216352 0.382518 0 0 -1.39235 0 0 0 0 0 0 0.01 
90 1 9 -0.103348 0.0216352 0.391518 0 0 -1.39235 0 0 0 0 0 0 0.01 
91 1 10 0.0526392 0.204817 0.146988 0 0 -1.39235 0 0 0 0 0 0 0.01 
92 1 10 0.0526392 0.204817 0.155988 0 0 -1.39235 0 0 0 0 0 0 0.01 
93 1 10 0.0526392 0.204817 0.164988 0 0 -1.39235 0 0 0 0 0 0 0.01 
94 1 10 0.0526392 0.204817 0.173988 0 0 -1.39235 0 0 0 0 0 0 0.01 
95 1 10 0.0526392 0.204817 0.182988 0 0 -1.39235 0 0 0 0 0 0 0.01 
96 1 10 0.0526392 0.204817 0.191988 0 0 -1.39235 0 0 0 0 0 0 0.01 
97 1 10 0.0526392 0.204817 0.200988 0 0 -1.39235 0 0 0 0 0 0 0.01 
98 1 10 0.0526392 0.204817 0.209988 0 0 -1.39235 0 0 0 0 0 0 0.01 
99 1 10 0.0526392 0.204817 0.218988 0 0 -1.39235 0 0 0 0 0 0 0.01 
100 1 10 0.0526392 0.204817 0.227988 0 0 -1.39235 0 0 0 0 0 0 0.01 
101 1 11 -0.191384 -0.0894902 0.199298 0 0 -1.39235 0 0 0 0 0 0 0.01 
102 1 11 -0.191384 -0.0894902 0.208298 0 0 -1.39235 0 0 0 0 0 0 0.01 
103 1 11 -0.191384 -0.0894902 0.217298 0 0 -1.39235 0 0 0 0 0 0 0.01 
104 1 11 -0.191384 -0.0894902 0.226298 0 0 -1.39235 0 0 0 0 0 0 0.01 
105 1 11 -0.191384 -0.0894902 0.235298 0 0 -1.39235 0 0 0 0 0 0 0.01 
106 1 11 -0.191384 -0.0894902 0.244298 0 0 -1.39235 0 0 0 0 0 0 0.01 
107 1 11 -0.191384 -0.0894902 0.253298 0 0 -1.39235 0 0 0 0 0 0 0.01 
108 1 11 -0.191384 -0.0894902 0.262298 0 0 -1.39235 0 0 0 0 0 0 0.01 
109 1 11 -0.191384 -0.0894902 0.271298 0 0 -1.39235 0 0 0 0 0 0 0.01 
110 1 11 -0.191384 -0.0894902 0.280298 0 0 -1.39235 0 0 0 0 0 0 0.01 
111 1 12 0.0959754 0.0567813 0.13043 0 0 -1.39235 0 0 0 0 0 0 0.01 
112 1 12 0.0959754 0.0567813 0.13943 0 0 -1.39235 0 0 0 0 0 0 0.01 
113 1 12 0.0959754 0.0567813 0.14843 0 0 -1.39235 0 0 0 0 0 0 0.01 
114 1 12 0.0959754 0.0567813 0.15743 0 0 -1.39235 0 0 0 0 0 0 0.01 
115 1 12 0.0959754 0.0567813 0.16643 0 0 -1.39235 0 0 0 0 0 0 0.01 
116 1 12 0.0959754 0.0567813 0.17543 0 0 -1.39235 0 0 0 0 0 0 0.01 
117 1 12 0.0959754 0.0567813 0.18443 0 0 -1.39235 0 0 0 0 0 0 0.01 
118 1 12 0.0959754 0.0567813 0.19343 0 0 -1.39235 0 0 0 0 0 0 0.01 
119 1 12 0.0959754 0.0567813 0.20243 0 0 -1.39235 0 0 0 0 0 0 0.01 
120 1 12 0.0959754 0.0567813 0.21143 0 0 -1.39235 0 0 0 0 0 0 0.01 
121 1 13 -0.0168848 0.215837 0.283668 0 0 -1.39235 0 0 0 0 0 0 0.01 
122 1 13 -0.0168848 0.215837 0.292668 0 0 -1.39235 0 0 0 0 0 0 0.01 
123 1 13 -0.0168848 0.215837 0.301668 0 0 -1.39235 0 0 0 0 0 0 0.01 
124 1 13 -0.0168848 0.215837 0.310668 0 0 -1.39235 0 0 0 0 0 0 0.01 
125 1 13 -0.0168848 0.215837 0.319668 0 0 -1.39235 0 0 0 0 0 0 0.01 
126 1 13 -0.0168848 0.215837 0.328668 0 0 -1.39235 0 0 0 0 0 0 0.01 
127 1 13 -0.0168848 0.215837 0.337668 0 0 -1.39235 0 0 0 0 0 0 0.01 
128 1 13 -0.0168848 0.215837 0.346668 0 0 -1.39235 0 0 0 0 0 0 0.01 
129 1 13 -0.0168848 0.215837 0.355668 0 0 -1.39235 0 0 0 0 0 0 0.01 
130 1 13 -0.0168848 0.215837 0.364668 0 0 -1.39235 0 0 0 0 0 0 0.01 
131 1 14 -0.0494958 0.122461 0.0548187 0 0 -1.39235 0 0 0 0 0 0 0.01 
132 1 14 -0.0494958 0.122461 0.0638187 0 0 -1.39235 0 0 0 0 0 0 0.01 
133 1 14 -0.0494958 0.122461 0.0728187 0 0 -1.39235 0 0 0 0 0 0 0.01 
134 1 14 -0.0494958 0.122461 0.0818187 0 0 -1.39235 0 0 0 0 0 0 0.01 
135 1 14 -0.0494958 0.122461 0.0908187 0 0 -1.39235 0 0 0 0 0 0 0.01 
136 1 14 -0.0494958 0.122461 0.0998187 0 0 -1.39235 0 0 0 0 0 0 0.01 
137 1 14 -0.0494958 0.122461 0.108819 0 0 -1.39235 0 0 0 0 0 0 0.01 
138 1 14 -0.0494958 0.122461 0.117819 0 0 -1.39235 0 0 0 0 0 0 0.01 
139 1 14 -0.0494958 0.122461 0.126819 0 0 -1.39235 0 0 0 0 0 0 0.01 
140 1 14 -0.0494958 0.122461 0.135819 0 0 -1.39235 0 0 0 0 0 0 0.01 
141 1 15 -0.0104758 -0.0692281 0.226027 0 0 -1.39235 0 0 0 0 0 0 0.01 
142 1 15 -0.0104758 -0.0692281 0.235027 0 0 -1.39235 0 0 0 0 0 0 0.01 
143 1 15 -0.0104758 -0.0692281 0.244027 0 0 -1.39235 0 0 0 0 0 0 0.01 
144 1 15 -0.0104758 -0.0692281 0.253027 0 0 -1.39235 0 0 0 0 0 0 0.01 
145 1 15 -0.0104758 -0.0692281 0.262027 0 0 -1.39235 0 0 0 0 0 0 0.01 
146 1 15 -0.0104758 -0.0692281 0.271027 0 0 -1.39235 0 0 0 0 0 0 0.01 
147 1 15 -0.0104758 -0.0692281 0.280027 0 0 -1.39235 0 0 0 0 0 0 0.01 
148 1 15 -0.0104758 -0.0692281 0.289027 0 0 -1.39235 0 0 0 0 0 0 0.01 
149 1 15 -0.0104758 -0.0692281 0.298027 0 0 -1.39235 0 0 0 0 0 0 0.01 
150 1 15 -0.0104758 -0.0692281 0.307027 0 0 -1.39235 0 0 0 0 0 0 0.01 
151 1 16 -0.0407462 0.176734 0.15951 0 0 -1.39235 0 0 0 0 0 0 0.01 
152 1 16 -0.0407462 0.176734 0.16851 0 0 -1.39235 0 0 0 0 0 0 0.01 
153 1 16 -0.0407462 0.176734 0.17751 0 0 -1.39235 0 0 0 0 0 0 0.01 
154 1 16 -0.0407462 0.176734 0.18651 0 0 -1.39235 0 0 0 0 0 0 0.01 
155 1 16 -0.0407462 0.176734 0.19551 0 0 -1.39235 0 0 0 0 0 0 0.01 
156 1 16 -0.0407462 0.176734 0.20451 0 0 -1.39235 0 0 0 0 0 0 0.01 
157 1 16 -0.0407462 0.176734 0.21351 0 0 -1.39235 0 0 0 0 0 0 0.01 
158 1 16 -0.0407462 0.176734 0.22251 0 0 -1.39235 0 0 0 0 0 0 0.01 
159 1 16 -0.0407462 0.176734 0.23151 0 0 -1.39235 0 0 0 0 0 0 0.01 
160 1 16 -0.0407462 0.176734 0.24051 0 0 -1.39235 0 0 0 0 0 0 0.01 
161 1 17 0.0731894 0.0923845 0.0597014 0 0 -1.39235 0 0 0 0 0 0 0.01 
162 1 17 0.0731894 0.0923845 0.0687014 0 0 -1.39235 0 0 0 0 0 0 0.01 
163 1 17 0.0731894 0.0923845 0.0777014 0 0 -1.39235 0 0 0 0 0 0 0.01 
164 1 17 0.0731894 0.0923845 0.0867014 0 0 -1.39235 0 0 0 0 0 0 0.01 
165 1 17 0.0731894 0.0923845 0.0957014 0 0 -1.39235 0 0 0 0 0 0 0.01 
166 1 17 0.0731894 0.0923845 0.104701 0 0 -1.39235 0 0 0 0 0 0 0.01 
167 1 17 0.0731894 0.0923845 0.113701 0 0 -1.39235 0 0 0 0 0 0 0.01 
168 1 17 0.0731894 0.0923845 0.122701 0 0 -1.39235 0 0 0 0 0 0 0.01 
169 1 17 0.0731894 0.0923845 0.131701 0 0 -1.39235 0 0 0 0 0 0 0.01 
170 1 17 0.0731894 0.0923845 0.140701 0 0 -1.39235 0 0 0 0 0 0 0.01 
171 1 18 -0.23779 -0.0339416 0.26217 0 0 -1.39235 0 0 0 0 0 0 0.01 
172 1 18 -0.23779 -0.0339416 0.27117 0 0 -1.39235 0 0 0 0 0 0 0.01 
173 1 18 -0.23779 -0.0339416 0.28017 0 0 -1.39235 0 0 0 0 0 0 0.01 
174 1 18 -0.23779 -0.0339416 0.28917 0 0 -1.39235 0 0 0 0 0 0 0.01 
175 1 18 -0.23779 -0.0339416 0.29817 0 0 -1.39235 0 0 0 0 0 0 0.01 
176 1 18 -0.23779 -0.0339416 0.30717 0 0 -1.39235 0 0 0 0 0 0 0.01 
177 1 18 -0.23779 -0.0339416 0.31617 0 0 -1.39235 0 0 0 0 0 0 0.01 
178 1 18 -0.23779 -0.0339416 0.32517 0 0 -1.39235 0 0 0 0 0 0 0.01 
179 1 18 -0.23779 -0.0339416 0.33417 0 0 -1.39235 0 0 0 0 0 0 0.01 
180 1 18 -0.23779 -0.0339416 0.34317 0 0 -1.39235 0 0 0 0 0 0 0.01 
181 1 19 0.00334189 0.165527 0.23942 0 0 -1.39235 0 0 0 0 0 0 0.01 
182 1 19 0.00334189 0.165527 0.24842 0 0 -1.39235 0 0 0 0 0 0 0.01 
183 1 19 0.00334189 0.165527 0.25742 0 0 -1.39235 0 0 0 0 0 0 0.01 
184 1 19 0.00334189 0.165527 0.26642 0 0 -1.39235 0 0 0 0 0 0 0.01 
185 1 19 0.00334189 0.165527 0.27542 0 0 -1.39235 0 0 0 0 0 0 0.01 
186 1 19 0.00334189 0.165527 0.28442 0 0 -1.39235 0 0 0 0 0 0 0.01 
187 1 19 0.00334189 0.165527 0.29342 0 0 -1.39235 0 0 0 0 0 0 0.01 
188 1 19 0.00334189 0.165527 0.30242 0 0 -1.39235 0 0 0 0 0 0 0.01 
189 1 19 0.00334189 0.165527 0.31142 0 0 -1.39235 0 0 0 0 0 0 0.01 
190 1 19 0.00334189 0.165527 0.32042 0 0 -1.39235 0 0 0 0 0 0 0.01 
191 1 20 -0.00784267 0.186597 0.0168535 0 0 -1.39235 0 0 0 0 0 0 0.01 
192 1 20 -0.00784267 0.186597 0.0258535 0 0 -1.39235 0 0 0 0 0 0 0.01 
193 1 20 -0.00784267 0.186597 0.0348535 0 0 -1.39235 0 0 0 0 0 0 0.01 
194 1 20 -0.00784267 0.186597 0.0438535 0 0 -1.39235 0 0 0 0 0 0 0.01 
195 1 20 -0.00784267 0.186597 0.0528535 0 0 -1.39235 0 0 0 0 0 0 0.01 
196 1 20 -0.00784267 0.186597 0.0618535 0 0 -1.39235 0 0 0 0 0 0 0.01 
197 1 20 -0.00784267 0.186597 0.0708535 0 0 -1.39235 0 0 0 0 0 0 0.01 
198 1 20 -0.00784267 0.186597 0.0798535 0 0 -1.39235 0 0 0 0 0 0 0.01 
199 1 20 -0.00784267 0.186597 0.0888535 0 0 -1.39235 0 0 0 0 0 0 0.01 
200 1 20 -0.00784267 0.186597 0.0978535 0 0 -1.39235 0 0 0 0 0 0 0.01 
201 1 21 0.0195457 0.00369696 0.017317 0 0 -1.39235 0 0 0 0 0 0 0.01 
202 1 21 0.0195457 0.00369696 0.026317 0 0 -1.39235 0 0 0 0 0 0 0.01 
203 1 21 0.0195457 0.00369696 0.035317 0 0 -1.39235 0 0 0 0 0 0 0.01 
204 1 21 0.0195457 0.00369696 0.044317 0 0 -1.39235 0 0 0 0 0 0 0.01 
205 1 21 0.0195457 0.00369696 0.053317 0 0 -1.39235 0 0 0 0 0 0 0.01 
206 1 21 0.0195457 0.00369696 0.062317 0 0 -1.39235 0 0 0 0 0 0 0.01 
207 1 21 0.0195457 0.00369696 0.071317 0 0 -1.39235 0 0 0 0 0 0 0.01 
208 1 21 0.0195457 0.00369696 0.080317 0 0 -1.39235 0 0 0 0 0 0 0.01 
209 1 21 0.0195457 0.00369696 0.089317 0 0 -1.39235 0 0 0 0 0 0 0.01 
210 1 21 0.0195457 0.00369696 0.098317 0 0 -1.39235 0 0 0 0 0 0 0.01 
211 1 22 0.00289755 0.197355 0.199427 0 0 -1.39235 0 0 0 0 0 0 0.01 
212 1 22 0.00289755 0.197355 0.208427 0 0 -1.39235 0 0 0 0 0 0 0.01 
213 1 22 0.00289755 0.197355 0.217427 0 0 -1.39235 0 0 0 0 0 0 0.01 
214 1 22 0.00289755 0.197355 0.226427 0 0 -1.39235 0 0 0 0 0 0 0.01 
215 1 22 0.00289755 0.197355 0.235427 0 0 -1.39235 0 0 0 0 0 0 0.01 
216 1 22 0.00289755 0.197355 0.244427 0 0 -1.39235 0 0 0 0 0 0 0.01 
217 1 22 0.00289755 0.197355 0.253427 0 0 -1.39235 0 0 0 0 0 0 0.01 
218 1 22 0.00289755 0.197355 0.262427 0 0 -1.39235 0 0 0 0 0 0 0.01 
219 1 22 0.00289755 0.197355 0.271427 0 0 -1.39235 0 0 0 0 0 0 0.01 
220 1 22 0.00289755 0.197355 0.280427 0 0 -1.39235 0 0 0 0 0 0 0.01 
221 1 23 0.214349 0.0539113 0.288959 0 0 -1.39235 0 0 0 0 0 0 0.01 
222 1 23 0.214349 0.0539113 0.297959 0 0 -1.39235 0 0 0 0 0 0 0.01 
223 1 23 0.214349 0.0539113 0.306959 0 0 -1.39235 0 0 0 0 0 0 0.01 
224 1 23 0.214349 0.0539113 0.315959 0 0 -1.39235 0 0 0 0 0 0 0.01 
225 1 23 0.214349 0.0539113 0.324959 0 0 -1.39235 0 0 0 0 0 0 0.01 
226 1 23 0.214349 0.0539113 0.333959 0 0 -1.39235 0 0 0 0 0 0 0.01 
227 1 23 0.214349 0.0539113 0.342959 0 0 -1.39235 0 0 0 0 0 0 0.01 
228 1 23 0.214349 0.0539113 0.351959 0 0 -1.39235 0 0 0 0 0 0 0.01 
229 1 23 0.214349 0.0539113 0.360959 0 0 -1.39235 0 0 0 0 0 0 0.01 
230 1 23 0.214349 0.0539113 0.369959 0 0 -1.39235 0 0 0 0 0 0 0.01 
231 1 24 0.157258 0.0254774 0.055413 0 0 -1.39235 0 0 0 0 0 0 0.01 
232 1 24 0.157258 0.0254774 0.064413 0 0 -1.39235 0 0 0 0 0 0 0.01 
233 1 24 0.157258 0.0254774 0.073413 0 0 -1.39235 0 0 0 0 0 0 0.01 
234 1 24 0.157258 0.0254774 0.082413 0 0 -1.39235 0 0 0 0 0 0 0.01 
235 1 24 0.157258 0.0254774 0.091413 0 0 -1.39235 0 0 0 0 0 0 0.01 
236 1 24 0.157258 0.0254774 0.100413 0 0 -1.39235 0 0 0 0 0 0 0.01 
237 1 24 0.157258 0.0254774 0.109413 0 0 -1.39235 0 0 0 0 0 0 0.01 
238 1 24 0.157258 0.0254774 0.118413 0 0 -1.39235 0 0 0 0 0 0 0.01 
239 1 24 0.157258 0.0254774 0.127413 0 0 -1.39235 0 0 0 0 0 0 0.01 
240 1 24 0.157258 0.0254774 0.136413 0 0 -1.39235 0 0 0 0 0 0 0.01 
241 1 25 0.134963 -0.174125 0.226783 0 0 -1.39235 0 0 0 0 0 0 0.01 
242 1 25 0.134963 -0.174125 0.235783 0 0 -1.39235 0 0 0 0 0 0 0.01 
243 1 25 0.134963 -0.174125 0.244783 0 0 -1.39235 0 0 0 0 0 0 0.01 
244 1 25 0.134963 -0.174125 0.253783 0 0 -1.39235 0 0 0 0 0 0 0.01 
245 1 25 0.134963 -0.174125 0.262783 0 0 -1.39235 0 0 0 0 0 0 0.01 
246 1 25 0.134963 -0.174125 0.271783 0 0 -1.39235 0 0 0 0 0 0 0.01 
247 1 25 0.134963 -0.174125 0.280783 0 0 -1.39235 0 0 0 0 0 0 0.01 
248 1 25 0.134963 -0.174125 0.289783 0 0 -1.39235 0 0 0 0 0 0 0.01 
249 1 25 0.134963 -0.174125 0.298783 0 0 -1.39235 0 0 0 0 0 0 0.01 
250 1 25 0.134963 -0.174125 0.307783 0 0 -1.39235 0 0 0 0 0 0 0.01 
251 1 26 -0.00920263 -0.17024 0.100456 0 0 -1.39235 0 0 0 0 0 0 0.01 
252 1 26 -0.00920263 -0.17024 0.109456 0 0 -1.39235 0 0 0 0 0 0 0.01 
253 1 26 -0.00920263 -0.17024 0.118456 0 0 -1.39235 0 0 0 0 0 0 0.01 
254 1 26 -0.00920263 -0.17024 0.127456 0 0 -1.39235 0 0 0 0 0 0 0.01 
255 1 26 -0.00920263 -0.17024 0.136456 0 0 -1.39235 0 0 0 0 0 0 0.01 
256 1 26 -0.00920263 -0.17024 0.145456 0 0 -1.39235 0 0 0 0 0 0 0.01 
257 1 26 -0.00920263 -0.17024 0.154456 0 0 -1.39235 0 0 0 0 0 0 0.01 
258 1 26 -0.00920263 -0.17024 0.163456 0 0 -1.39235 0 0 0 0 0 0 0.01 
259 1 26 -0.00920263 -0.17024 0.172456 0 0 -1.39235 0 0 0 0 0 0 0.01 
260 1 26 -0.00920263 -0.17024 0.181456 0 0 -1.39235 0 0 0 0 0 0 0.01 
261 1 27 -0.145674 0.150591 0.223973 0 0 -1.39235 0 0 0 0 0 0 0.01 
262 1 27 -0.145674 0.150591 0.232973 0 0 -1.39235 0 0 0 0 0 0 0.01 
263 1 27 -0.145674 0.150591 0.241973 0 0 -1.39235 0 0 0 0 0 0 0.01 
264 1 27 -0.145674 0.150591 0.250973 0 0 -1.39235 0 0 0 0 0 0 0.01 
265 1 27 -0.145674 0.150591 0.259973 0 0 -1.39235 0 0 0 0 0 0 0.01 
266 1 27 -0.145674 0.150591 0.268973 0 0 -1.39235 0 0 0 0 0 0 0.01 
267 1 27 -0.145674 0.150591 0.277973 0 0 -1.39235 0 0 0 0 0 0 0.01 
268 1 27 -0.145674 0.150591 0.286973 0 0 -1.39235 0 0 0 0 0 0 0.01 
269 1 27 -0.145674 0.150591 0.295973 0 0 -1.39235 0 0 0 0 0 0 0.01 
270 1 27 -0.145674 0.150591 0.304973 0 0 -1.39235 0 0 0 0 0 0 0.01 
271 1 28 0.0144186 -0.169101 0.184536 0 0 -1.39235 0 0 0 0 0 0 0.01 
272 1 28 0.0144186 -0.169101 0.193536 0 0 -1.39235 0 0 0 0 0 0 0.01 
273 1 28 0.0144186 -0.169101 0.202536 0 0 -1.39235 0 0 0 0 0 0 0.01 
274 1 28 0.0144186 -0.169101 0.211536 0 0 -1.39235 0 0 0 0 0 0 0.01 
275 1 28 0.0144186 -0.169101 0.220536 0 0 -1.39235 0 0 0 0 0 0 0.01 
276 1 28 0.0144186 -0.169101 0.229536 0 0 -1.39235 0 0 0 0 0 0 0.01 
277 1 28 0.0144186 -0.169101 0.238536 0 0 -1.39235 0 0 0 0 0 0 0.01 
278 1 28 0.0144186 -0.169101 0.247536 0 0 -1.39235 0 0 0 0 0 0 0.01 
279 1 28 0.0144186 -0.169101 0.256536 0 0 -1.39235 0 0 0 0 0 0 0.01 
280 1 28 0.0144186 -0.169101 0.265536 0 0 -1.39235 0 0 0 0 0 0 0.01 
281 1 29 0.0770886 0.126327 0.0431967 0 0 -1.39235 0 0 0 0 0 0 0.01 
282 1 29 0.0770886 0.126327 0.0521967 0 0 -1.39235 0 0 0 0 0 0 0.01 
283 1 29 0.0770886 0.126327 0.0611967 0 0 -1.39235 0 0 0 0 0 0 0.01 
284 1 29 0.0770886 0.126327 0.0701967 0 0 -1.39235 0 0 0 0 0 0 0.01 
285 1 29 0.0770886 0.126327 0.0791967 0 0 -1.39235 0 0 0 0 0 0 0.01 
286 1 29 0.0770886 0.126327 0.0881967 0 0 -1.39235 0 0 0 0 0 0 0.01 
287 1 29 0.0770886 0.126327 0.0971967 0 0 -1.39235 0 0 0 0 0 0 0.01 
288 1 29 0.0770886 0.126327 0.106197 0 0 -1.39235 0 0 0 0 0 0 0.01 
289 1 29 0.0770886 0.126327 0.115197 0 0 -1.39235 0 0 0 0 0 0 0.01 
290 1 29 0.0770886 0.126327 0.124197 0 0 -1.39235 0 0 0 0 0 0 0.01 
291 1 30 -0.0622987 -0.0566083 0.286616 0 0 -1.39235 0 0 0 0 0 0 0.01 
292 1 30 -0.0622987 -0.0566083 0.295616 0 0 -1.39235 0 0 0 0 0 0 0.01 
293 1 30 -0.0622987 -0.0566083 0.304616 0 0 -1.39235 0 0 0 0 0 0 0.01 
294 1 30 -0.0622987 -0.0566083 0.313616 0 0 -1.39235 0 0 0 0 0 0 0.01 
295 1 30 -0.0622987 -0.0566083 0.322616 0 0 -1.39235 0 0 0 0 0 0 0.01 
296 1 30 -0.0622987 -0.0566083 0.331616 0 0 -1.39235 0 0 0 0 0 0 0.01 
297 1 30 -0.0622987 -0.0566083 0.340616 0 0 -1.39235 0 0 0 0 0 0 0.01 
298 1 30 -0.0622987 -0.0566083 0.349616 0 0 -1.39235 0 0 0 0 0 0 0.01 
299 1 30 -0.0622987 -0.0566083 0.358616 0 0 -1.39235 0 0 0 0 0 0 0.01 
300 1 30 -0.0622987 -0.0566083 0.367616 0 0 -1.39235 0 0 0 0 0 0 0.01 
301 1 31 0.0111005 0.0641788 0.0286526 0 0 -1.39235 0 0 0 0 0 0 0.01 
302 1 31 0.0111005 0.0641788 0.0376526 0 0 -1.39235 0 0 0 0 0 0 0.01 
303 1 31 0.0111005 0.0641788 0.0466526 0 0 -1.39235 0 0 0 0 0 0 0.01 
304 1 31 0.0111005 0.0641788 0.0556526 0 0 -1.39235 0 0 0 0 0 0 0.01 
305 1 31 0.0111005 0.0641788 0.0646526 0 0 -1.39235 0 0 0 0 0 0 0.01 
306 1 31 0.0111005 0.0641788 0.0736526 0 0 -1.39235 0 0 0 0 0 0 0.01 
307 1 31 0.0111005 0.0641788 0.0826526 0 0 -1.39235 0 0 0 0 0 0 0.01 
308 1 31 0.0111005 0.0641788 0.0916526 0 0 -1.39235 0 0 0 0 0 0 0.01 
309 1 31 0.0111005 0.0641788 0.100653 0 0 -1.39235 0 0 0 0 0 0 0.01 
310 1 31 0.0111005 0.0641788 0.109653 0 0 -1.39235 0 0 0 0 0 0 0.01 
311 1 32 0.0320384 -0.0315173 0.109862 0 0 -1.39235 0 0 0 0 0 0 0.01 
312 1 32 0.0320384 -0.0315173 0.118862 0 0 -1.39235 0 0 0 0 0 0 0.01 
313 1 32 0.0320384 -0.0315173 0.127862 0 0 -1.39235 0 0 0 0 0 0 0.01 
314 1 32 0.0320384 -0.0315173 0.136862 0 0 -1.39235 0 0 0 0 0 0 0.01 
315 1 32 0.0320384 -0.0315173 0.145862 0 0 -1.39235 0 0 0 0 0 0 0.01 
316 1 32 0.0320384 -0.0315173 0.154862 0 0 -1.39235 0 0 0 0 0 0 0.01 
317 1 32 0.0320384 -0.0315173 0.163862 0 0 -1.39235 0 0 0 0 0 0 0.01 
318 1 32 0.0320384 -0.0315173 0.172862 0 0 -1.39235 0 0 0 0 0 0 0.01 
319 1 32 0.0320384 -0.0315173 0.181862 0 0 -1.39235 0 0 0 0 0 0 0.01 
320 1 32 0.0320384 -0.0315173 0.190862 0 0 -1.39235 0 0 0 0 0 0 0.01 
321 1 33 -0.164367 -0.0225208 0.232118 0 0 -1.39235 0 0 0 0 0 0 0.01 
322 1 33 -0.164367 -0.0225208 0.241118 0 0 -1.39235 0 0 0 0 0 0 0.01 
323 1 33 -0.164367 -0.0225208 0.250118 0 0 -1.39235 0 0 0 0 0 0 0.01 
324 1 33 -0.164367 -0.0225208 0.259118 0 0 -1.39235 0 0 0 0 0 0 0.01 
325 1 33 -0.164367 -0.0225208 0.268118 0 0 -1.39235 0 0 0 0 0 0 0.01 
326 1 33 -0.164367 -0.0225208 0.277118 0 0 -1.39235 0 0 0 0 0 0 0.01 
327 1 33 -0.164367 -0.0225208 0.286118 0 0 -1.39235 0 0 0 0 0 0 0.01 
328 1 33 -0.164367 -0.0225208 0.295118 0 0 -1.39235 0 0 0 0 0 0 0.01 
329 1 33 -0.164367 -0.0225208 0.304118 0 0 -1.39235 0 0 0 0 0 0 0.01 
330 1 33 -0.164367 -0.0225208 0.313118 0 0 -1.39235 0 0 0 0 0 0 0.01 
331 1 34 -0.0753724 0.213735 0.082722 0 0 -1.39235 0 0 0 0 0 0 0.01 
332 1 34 -0.0753724 0.213735 0.091722 0 0 -1.39235 0 0 0 0 0 0 0.01 
333 1 34 -0.0753724 0.213735 0.100722 0 0 -1.39235 0 0 0 0 0 0 0.01 
334 1 34 -0.0753724 0.213735 0.109722 0 0 -1.39235 0 0 0 0 0 0 0.01 
335 1 34 -0.0753724 0.213735 0.118722 0 0 -1.39235 0 0 0 0 0 0 0.01 
336 1 34 -0.0753724 0.213735 0.127722 0 0 -1.39235 0 0 0 0 0 0 0.01 
337 1 34 -0.0753724 0.213735 0.136722 0 0 -1.39235 0 0 0 0 0 0 0.01 
338 1 34 -0.0753724 0.213735 0.145722 0 0 -1.39235 0 0 0 0 0 0 0.01 
339 1 34 -0.0753724 0.213735 0.154722 0 0 -1.39235 0 0 0 0 0 0 0.01 
340 1 34 -0.0753724 0.213735 0.163722 0 0 -1.39235 0 0 0 0 0 0 0.01 
341 1 35 0.107324 -0.21107 0.262785 0 0 -1.39235 0 0 0 0 0 0 0.01 
342 1 35 0.107324 -0.21107 0.271785 0 0 -1.39235 0 0 0 0 0 0 0.01 
343 1 35 0.107324 -0.21107 0.280785 0 0 -1.39235 0 0 0 0 0 0 0.01 
344 1 35 0.107324 -0.21107 0.289785 0 0 -1.39235 0 0 0 0 0 0 0.01 
345 1 35 0.107324 -0.21107 0.298785 0 0 -1.39235 0 0 0 0 0 0 0.01 
346 1 35 0.107324 -0.21107 0.307785 0 0 -1.39235 0 0 0 0 0 0 0.01 
347 1 35 0.107324 -0.21107 0.316785 0 0 -1.39235 0 0 0 0 0 0 0.01 
348 1 35 0.107324 -0.21107 0.325785 0 0 -1.39235 0 0 0 0 0 0 0.01 
349 1 35 0.107324 -0.21107 0.334785 0 0 -1.39235 0 0 0 0 0 0 0.01 
350 1 35 0.107324 -0.21107 0.343785 0 0 -1.39235 0 0 0 0 0 0 0.01 
351 1 36 -0.0369915 -0.217979 0.195924 0 0 -1.39235 0 0 0 0 0 0 0.01 
352 1 36 -0.0369915 -0.217979 0.204924 0 0 -1.39235 0 0 0 0 0 0 0.01 
353 1 36 -0.0369915 -0.217979 0.213924 0 0 -1.39235 0 0 0 0 0 0 0.01 
354 1 36 -0.0369915 -0.217979 0.222924 0 0 -1.39235 0 0 0 0 0 0 0.01 
355 1 36 -0.0369915 -0.217979 0.231924 0 0 -1.39235 0 0 0 0 0 0 0.01 
356 1 36 -0.0369915 -0.217979 0.240924 0 0 -1.39235 0 0 0 0 0 0 0.01 
357 1 36 -0.0369915 -0.217979 0.249924 0 0 -1.39235 0 0 0 0 0 0 0.01 
358 1 36 -0.0369915 -0.217979 0.258924 0 0 -1.39235 0 0 0 0 0 0 0.01 
359 1 36 -0.0369915 -0.217979 0.267924 0 0 -1.39235 0 0 0 0 0 0 0.01 
360 1 36 -0.0369915 -0.217979 0.276924 0 0 -1.39235 0 0 0 0 0 0 0.01 
361 1 37 0.0719128 0.13673 0.24566 0 0 -1.39235 0 0 0 0 0 0 0.01 
362 1 37 0.0719128 0.13673 0.25466 0 0 -1.39235 0 0 0 0 0 0 0.01 
363 1 37 0.0719128 0.13673 0.26366 0 0 -1.39235 0 0 0 0 0 0 0.01 
364 1 37 0.0719128 0.13673 0.27266 0 0 -1.39235 0 0 0 0 0 0 0.01 
365 1 37 0.0719128 0.13673 0.28166 0 0 -1.39235 0 0 0 0 0 0 0.01 
366 1 37 0.0719128 0.13673 0.29066 0 0 -1.39235 0 0 0 0 0 0 0.01 
367 1 37 0.0719128 0.13673 0.29966 0 0 -1.39235 0 0 0 0 0 0 0.01 
368 1 37 0.0719128 0.13673 0.30866 0 0 -1.39235 0 0 0 0 0 0 0.01 
369 1 37 0.0719128 0.13673 0.31766 0 0 -1.39235 0 0 0 0 0 0 0.01 
370 1 37 0.0719128 0.13673 0.32666 0 0 -1.39235 0 0 0 0 0 0 0.01 
371 1 38 -0.156963 -0.0782603 0.0442073 0 0 -1.39235 0 0 0 0 0 0 0.01 
372 1 38 -0.156963 -0.0782603 0.0532073 0 0 -1.39235 0 0 0 0 0 0 0.01 
373 1 38 -0.156963 -0.0782603 0.0622073 0 0 -1.39235 0 0 0 0 0 0 0.01 
374 1 38 -0.156963 -0.0782603 0.0712073 0 0 -1.39235 0 0 0 0 0 0 0.01 
375 1 38 -0.156963 -0.0782603 0.0802073 0 0 -1.39235 0 0 0 0 0 0 0.01 
376 1 38 -0.156963 -0.0782603 0.0892073 0 0 -1.39235 0 0 0 0 0 0 0.01 
377 1 38 -0.156963 -0.0782603 0.0982073 0 0 -1.39235 0 0 0 0 0 0 0.01 
378 1 38 -0.156963 -0.0782603 0.107207 0 0 -1.39235 0 0 0 0 0 0 0.01 
379 1 38 -0.156963 -0.0782603 0.116207 0 0 -1.39235 0 0 0 0 0 0 0.01 
380 1 38 -0.156963 -0.0782603 0.125207 0 0 -1.39235 0 0 0 0 0 0 0.01 
381 1 39 -0.132731 0.194202 0.204722 0 0 -1.39235 0 0 0 0 0 0 0.01 
382 1 39 -0.132731 0.194202 0.213722 0 0 -1.39235 0 0 0 0 0 0 0.01 
383 1 39 -0.132731 0.194202 0.222722 0 0 -1.39235 0 0 0 0 0 0 0.01 
384 1 39 -0.132731 0.194202 0.231722 0 0 -1.39235 0 0 0 0 0 0 0.01 
385 1 39 -0.132731 0.194202 0.240722 0 0 -1.39235 0 0 0 0 0 0 0.01 
386 1 39 -0.132731 0.194202 0.249722 0 0 -1.39235 0 0 0 0 0 0 0.01 
387 1 39 -0.132731 0.194202 0.258722 0 0 -1.39235 0 0 0 0 0 0 0.01 
388 1 39 -0.132731 0.194202 0.267722 0 0 -1.39235 0 0 0 0 0 0 0.01 
389 1 39 -0.132731 0.194202 0.276722 0 0 -1.39235 0 0 0 0 0 0 0.01 
390 1 39 -0.132731 0.194202 0.285722 0 0 -1.39235 0 0 0 0 0 0 0.01 
391 1 40 0.0157305 -0.119676 0.303924 0 0 -1.39235 0 0 0 0 0 0 0.01 
392 1 40 0.0157305 -0.119676 0.312924 0 0 -1.39235 0 0 0 0 0 0 0.01 
393 1 40 0.0157305 -0.119676 0.321924 0 0 -1.39235 0 0 0 0 0 0 0.01 
394 1 40 0.0157305 -0.119676 0.330924 0 0 -1.39235 0 0 0 0 0 0 0.01 
395 1 40 0.0157305 -0.119676 0.339924 0 0 -1.39235 0 0 0 0 0 0 0.01 
396 1 40 0.0157305 -0.119676 0.348924 0 0 -1.39235 0 0 0 0 0 0 0.01 
397 1 40 0.0157305 -0.119676 0.357924 0 0 -1.39235 0 0 0 0 0 0 0.01 
398 1 40 0.0157305 -0.119676 0.366924 0 0 -1.39235 0 0 0 0 0 0 0.01 
399 1 40 0.0157305 -0.119676 0.375924 0 0 -1.39235 0 0 0 0 0 0 0.01 
400 1 40 0.0157305 -0.119676 0.384924 0 0 -1.39235 0 0 0 0 0 0 0.01 
401 1 41 -0.158558 0.109248 0.0174821 0 0 -1.39235 0 0 0 0 0 0 0.01 
402 1 41 -0.158558 0.109248 0.0264821 0 0 -1.39235 0 0 0 0 0 0 0.01 
403 1 41 -0.158558 0.109248 0.0354821 0 0 -1.39235 0 0 0 0 0 0 0.01 
404 1 41 -0.158558 0.109248 0.0444821 0 0 -1.39235 0 0 0 0 0 0 0.01 
405 1 41 -0.158558 0.109248 0.0534821 0 0 -1.39235 0 0 0 0 0 0 0.01 
406 1 41 -0.158558 0.109248 0.0624821 0 0 -1.39235 0 0 0 0 0 0 0.01 
407 1 41 -0.158558 0.109248 0.0714821 0 0 -1.39235 0 0 0 0 0 0 0.01 
408 1 41 -0.158558 0.109248 0.0804821 0 0 -1.39235 0 0 0 0 0 0 0.01 
409 1 41 -0.158558 0.109248 0.0894821 0 0 -1.39235 0 0 0 0 0 0 0.01 
410 1 41 -0.158558 0.109248 0.0984821 0 0 -1.39235 0 0 0 0 0 0 0.01 
411 1 42 0.127323 -0.0832319 0.309686 0 0 -1.39235 0 0 0 0 0 0 0.01 
412 1 42 0.127323 -0.0832319 0.318686 0 0 -1.39235 0 0 0 0 0 0 0.01 
413 1 42 0.127323 -0.0832319 0.327686 0 0 -1.39235 0 0 0 0 0 0 0.01 
414 1 42 0.127323 -0.0832319 0.336686 0 0 -1.39235 0 0 0 0 0 0 0.01 
415 1 42 0.127323 -0.0832319 0.345686 0 0 -1.39235 0 0 0 0 0 0 0.01 
416 1 42 0.127323 -0.0832319 0.354686 0 0 -1.39235 0 0 0 0 0 0 0.01 
417 1 42 0.127323 -0.0832319 0.363686 0 0 -1.39235 0 0 0 0 0 0 0.01 
418 1 42 0.127323 -0.0832319 0.372686 0 0 -1.39235 0 0 0 0 0 0 0.01 
419 1 42 0.127323 -0.0832319 0.381686 0 0 -1.39235 0 0 0 0 0 0 0.01 
420 1 42 0.127323 -0.0832319 0.390686 0 0 -1.39235 0 0 0 0 0 0 0.01 
421 1 43 0.136585 0.0746672 0.195215 0 0 -1.39235 0 0 0 0 0 0 0.01 
422 1 43 0.136585 0.0746672 0.204215 0 0 -1.39235 0 0 0 0 0 0 0.01 
423 1 43 0.136585 0.0746672 0.213215 0 0 -1.39235 0 0 0 0 0 0 0.01 
424 1 43 0.136585 0.0746672 0.222215 0 0 -1.39235 0 0 0 0 0 0 0.01 
425 1 43 0.136585 0.0746672 0.231215 0 0 -1.39235 0 0 0 0 0 0 0.01 
426 1 43 0.136585 0.0746672 0.240215 0 0 -1.39235 0 0 0 0 0 0 0.01 
427 1 43 0.136585 0.0746672 0.249215 0 0 -1.39235 0 0 0 0 0 0 0.01 
428 1 43 0.136585 0.0746672 0.258215 0 0 -1.39235 0 0 0 0 0 0 0.01 