ITEM: TIMESTEP
29000
ITEM: NUMBER OF ATOMS
6300
ITEM: BOX BOUNDS mm mm mm
-0.360555 0.353036
-0.327949 0.373456
0 0.5
ITEM: ATOMS id type mol x y z vx vy vz fx fy fz omegax omegay omegaz radius 
1 1 1 -0.127649 -0.1125 0.0864217 -0.179226 0.0324839 -0.0519776 0.172978 -0.307939 0.710643 6.07508 0.0630852 0.635112 0.01 
2 1 1 -0.127667 -0.116553 0.0944576 -0.176145 -0.0163469 -0.0765961 -0.0511422 0.109878 0.0910224 6.07508 0.0630852 0.635112 0.01 
3 1 1 -0.127686 -0.120605 0.102494 -0.173064 -0.0651778 -0.101214 0 0 0 6.07508 0.0630852 0.635112 0.01 
4 1 1 -0.127704 -0.124658 0.11053 -0.169984 -0.114009 -0.125833 0 0 0 6.07508 0.0630852 0.635112 0.01 
5 1 1 -0.127723 -0.128711 0.118565 -0.166903 -0.162839 -0.150451 0 0 0 6.07508 0.0630852 0.635112 0.01 
6 1 1 -0.127741 -0.132763 0.126601 -0.163822 -0.21167 -0.17507 0 0 0 6.07508 0.0630852 0.635112 0.01 
7 1 1 -0.12776 -0.136816 0.134637 -0.160741 -0.260501 -0.199688 0.0806775 0.231356 0.00672896 6.07508 0.0630852 0.635112 0.01 
8 1 1 -0.127779 -0.140868 0.142673 -0.157661 -0.309332 -0.224307 0 0 0 6.07508 0.0630852 0.635112 0.01 
9 1 1 -0.127797 -0.144921 0.150709 -0.15458 -0.358163 -0.248925 -0.0603943 0.0722918 0.0612001 6.07508 0.0630852 0.635112 0.01 
10 1 1 -0.127816 -0.148973 0.158745 -0.151499 -0.406994 -0.273544 0 0 0 6.07508 0.0630852 0.635112 0.01 
11 1 2 -0.0212149 -0.122792 0.0348626 0.0317289 -0.110977 -0.168823 -0.094446 0.0776974 0.413274 2.83813 -0.385727 -3.901 0.01 
12 1 2 -0.0235243 -0.123438 0.0435372 0.0258612 -0.126588 -0.171549 0 0 0 2.83813 -0.385727 -3.901 0.01 
13 1 2 -0.0258336 -0.124085 0.0522118 0.0199935 -0.142199 -0.174274 0 0 0 2.83813 -0.385727 -3.901 0.01 
14 1 2 -0.028143 -0.124731 0.0608864 0.0141258 -0.15781 -0.176999 0 0 0 2.83813 -0.385727 -3.901 0.01 
15 1 2 -0.0304523 -0.125377 0.0695611 0.00825814 -0.173421 -0.179725 -0.0312603 -0.122009 -0.0681189 2.83813 -0.385727 -3.901 0.01 
16 1 2 -0.0327617 -0.126024 0.0782357 0.00239045 -0.189032 -0.18245 0.0390711 -0.0931458 0.0384999 2.83813 -0.385727 -3.901 0.01 
17 1 2 -0.035071 -0.12667 0.0869103 -0.00347724 -0.204643 -0.185176 0 0 0 2.83813 -0.385727 -3.901 0.01 
18 1 2 -0.0373804 -0.127317 0.0955849 -0.00934493 -0.220254 -0.187901 0 0 0 2.83813 -0.385727 -3.901 0.01 
19 1 2 -0.0396897 -0.127963 0.10426 -0.0152126 -0.235865 -0.190626 -0.423114 0.28271 -0.591232 2.83813 -0.385727 -3.901 0.01 
20 1 2 -0.0419991 -0.128609 0.112934 -0.0210803 -0.251476 -0.193352 0.160745 -0.0559575 -0.0927948 2.83813 -0.385727 -3.901 0.01 
21 1 3 -0.0305649 -0.0368817 0.00994961 -0.0674285 -0.0493909 0.00136048 0.138457 -0.00115345 0.276924 5.06455 5.0097 -7.71748 0.01 
22 1 3 -0.0334248 -0.0420801 0.016717 -0.0736443 -0.0615936 -0.0106399 0 0 0 5.06455 5.0097 -7.71748 0.01 
23 1 3 -0.0362847 -0.0472785 0.0234844 -0.0798602 -0.0737963 -0.0226402 0 0 0 5.06455 5.0097 -7.71748 0.01 
24 1 3 -0.0391446 -0.0524769 0.0302518 -0.0860761 -0.0859991 -0.0346406 0 0 0 5.06455 5.0097 -7.71748 0.01 
25 1 3 -0.0420045 -0.0576753 0.0370192 -0.0922919 -0.0982018 -0.0466409 0 0 0 5.06455 5.0097 -7.71748 0.01 
26 1 3 -0.0448644 -0.0628737 0.0437866 -0.0985078 -0.110404 -0.0586413 0 0 0 5.06455 5.0097 -7.71748 0.01 
27 1 3 -0.0477242 -0.0680721 0.050554 -0.104724 -0.122607 -0.0706416 0 0 0 5.06455 5.0097 -7.71748 0.01 
28 1 3 -0.0505841 -0.0732705 0.0573214 -0.11094 -0.13481 -0.082642 0 0 0 5.06455 5.0097 -7.71748 0.01 
29 1 3 -0.053444 -0.0784689 0.0640888 -0.117155 -0.147013 -0.0946424 0.024966 -0.02984 0.089781 5.06455 5.0097 -7.71748 0.01 
30 1 3 -0.0563039 -0.0836673 0.0708562 -0.123371 -0.159215 -0.106643 -0.0667482 -0.0249836 0.00584949 5.06455 5.0097 -7.71748 0.01 
31 1 4 -0.0904045 0.115645 0.00994507 -0.0585932 0.0678444 0.00103971 -0.00576467 -0.164727 0.329656 -3.96135 -6.01869 -5.54016 0.01 
32 1 4 -0.0920504 0.120593 0.0172807 -0.0753337 0.106023 -0.0284661 1.83216 -1.44731 2.91394 -3.96135 -6.01869 -5.54016 0.01 
33 1 4 -0.0936964 0.125541 0.0246164 -0.0920741 0.144201 -0.057972 0 0 0 -3.96135 -6.01869 -5.54016 0.01 
34 1 4 -0.0953424 0.130488 0.031952 -0.108815 0.182379 -0.0874778 0 0 0 -3.96135 -6.01869 -5.54016 0.01 
35 1 4 -0.0969883 0.135436 0.0392877 -0.125555 0.220557 -0.116984 0 0 0 -3.96135 -6.01869 -5.54016 0.01 
36 1 4 -0.0986343 0.140383 0.0466234 -0.142295 0.258735 -0.14649 0 0 0 -3.96135 -6.01869 -5.54016 0.01 
37 1 4 -0.10028 0.145331 0.053959 -0.159036 0.296913 -0.175995 0 0 0 -3.96135 -6.01869 -5.54016 0.01 
38 1 4 -0.101926 0.150279 0.0612947 -0.175776 0.335091 -0.205501 0 0 0 -3.96135 -6.01869 -5.54016 0.01 
39 1 4 -0.103572 0.155226 0.0686303 -0.192517 0.373269 -0.235007 0.0408708 0.359242 -0.300869 -3.96135 -6.01869 -5.54016 0.01 
40 1 4 -0.105218 0.160174 0.075966 -0.209257 0.411447 -0.264513 0.304173 -0.543187 1.07583 -3.96135 -6.01869 -5.54016 0.01 
41 1 5 0.0791475 -0.135332 0.00986237 0.0113747 -0.00517149 0.000485393 -0.741051 0.0256315 1.53171 0.605926 1.6477 1.89414 0.01 
42 1 5 0.0798239 -0.134366 0.0187847 0.0242455 -0.00929654 -4.35725e-05 0 0 0 0.605926 1.6477 1.89414 0.01 
43 1 5 0.0805003 -0.1334 0.0277071 0.0371164 -0.0134216 -0.000572538 1.00166 0.137559 -0.821102 0.605926 1.6477 1.89414 0.01 
44 1 5 0.0811767 -0.132433 0.0366294 0.0499872 -0.0175466 -0.0011015 0 0 0 0.605926 1.6477 1.89414 0.01 
45 1 5 0.0818532 -0.131467 0.0455518 0.062858 -0.0216717 -0.00163047 0 0 0 0.605926 1.6477 1.89414 0.01 
46 1 5 0.0825296 -0.1305 0.0544742 0.0757289 -0.0257967 -0.00215943 0 0 0 0.605926 1.6477 1.89414 0.01 
47 1 5 0.083206 -0.129534 0.0633965 0.0885997 -0.0299218 -0.0026884 0 0 0 0.605926 1.6477 1.89414 0.01 
48 1 5 0.0838824 -0.128568 0.0723189 0.101471 -0.0340468 -0.00321736 0 0 0 0.605926 1.6477 1.89414 0.01 
49 1 5 0.0845589 -0.127601 0.0812412 0.114341 -0.0381719 -0.00374633 0 0 0 0.605926 1.6477 1.89414 0.01 
50 1 5 0.0852353 -0.126635 0.0901636 0.127212 -0.0422969 -0.00427529 -0.103545 -0.017159 -0.266304 0.605926 1.6477 1.89414 0.01 
51 1 6 0.185491 -0.0309247 0.0122611 0.109238 -0.00884477 0.155766 0 0 0 14.1186 4.1451 -7.71884 0.01 
52 1 6 0.179676 -0.0358072 0.0170935 0.0915814 -0.0321892 0.110934 0 0 0 14.1186 4.1451 -7.71884 0.01 
53 1 6 0.173862 -0.0406897 0.0219258 0.0739248 -0.0555336 0.0661016 0 0 0 14.1186 4.1451 -7.71884 0.01 
54 1 6 0.168047 -0.0455722 0.0267582 0.0562682 -0.078878 0.0212695 0 0 0 14.1186 4.1451 -7.71884 0.01 
55 1 6 0.162232 -0.0504547 0.0315906 0.0386116 -0.102222 -0.0235626 0.606044 -0.347824 2.78493 14.1186 4.1451 -7.71884 0.01 
56 1 6 0.156418 -0.0553372 0.0364229 0.020955 -0.125567 -0.0683946 0 0 0 14.1186 4.1451 -7.71884 0.01 
57 1 6 0.150603 -0.0602197 0.0412553 0.0032984 -0.148911 -0.113227 -0.842974 0.400764 -0.183127 14.1186 4.1451 -7.71884 0.01 
58 1 6 0.144789 -0.0651022 0.0460877 -0.0143582 -0.172256 -0.158059 0 0 0 14.1186 4.1451 -7.71884 0.01 
59 1 6 0.138974 -0.0699847 0.05092 -0.0320148 -0.1956 -0.202891 0.947695 -1.11395 -1.6317 14.1186 4.1451 -7.71884 0.01 
60 1 6 0.133159 -0.0748672 0.0557524 -0.0496714 -0.218944 -0.247723 -0.313595 0.792992 0.551803 14.1186 4.1451 -7.71884 0.01 
61 1 7 -0.0381207 0.220894 0.00974866 0.00848775 0.0542543 0.0115903 0.406947 0.931124 3.04911 -5.70804 0.915672 -0.642729 0.01 
62 1 7 -0.0368436 0.22377 0.0181806 0.0180571 0.101564 -0.00599479 0 0 0 -5.70804 0.915672 -0.642729 0.01 
63 1 7 -0.0355666 0.226646 0.0266126 0.0276265 0.148873 -0.0235799 0 0 0 -5.70804 0.915672 -0.642729 0.01 
64 1 7 -0.0342895 0.229522 0.0350446 0.0371958 0.196182 -0.041165 0 0 0 -5.70804 0.915672 -0.642729 0.01 
65 1 7 -0.0330125 0.232398 0.0434766 0.0467652 0.243492 -0.0587501 0 0 0 -5.70804 0.915672 -0.642729 0.01 
66 1 7 -0.0317354 0.235273 0.0519086 0.0563345 0.290801 -0.0763352 -0.110157 0.0481605 -0.0955077 -5.70804 0.915672 -0.642729 0.01 
67 1 7 -0.0304584 0.238149 0.0603406 0.0659039 0.33811 -0.0939203 0 0 0 -5.70804 0.915672 -0.642729 0.01 
68 1 7 -0.0291814 0.241025 0.0687726 0.0754733 0.38542 -0.111505 -0.00515058 -0.127556 0.00186586 -5.70804 0.915672 -0.642729 0.01 
69 1 7 -0.0279043 0.243901 0.0772045 0.0850426 0.432729 -0.129091 0.374746 -0.109904 -0.269345 -5.70804 0.915672 -0.642729 0.01 
70 1 7 -0.0266273 0.246777 0.0856365 0.094612 0.480038 -0.146676 -0.65583 -0.336426 -1.88831 -5.70804 0.915672 -0.642729 0.01 
71 1 8 0.135307 -0.154805 0.10267 0.0369705 -0.327988 -0.134417 -0.00919213 -0.0914589 0.188607 -3.04508 8.30377 1.55262 0.01 
72 1 8 0.140902 -0.153664 0.109627 0.0929642 -0.298118 -0.184352 0 0 0 -3.04508 8.30377 1.55262 0.01 
73 1 8 0.146497 -0.152523 0.116583 0.148958 -0.268248 -0.234287 0 0 0 -3.04508 8.30377 1.55262 0.01 
74 1 8 0.152092 -0.151382 0.12354 0.204952 -0.238377 -0.284221 0 0 0 -3.04508 8.30377 1.55262 0.01 
75 1 8 0.157687 -0.150241 0.130496 0.260945 -0.208507 -0.334156 0 0 0 -3.04508 8.30377 1.55262 0.01 
76 1 8 0.163283 -0.1491 0.137453 0.316939 -0.178637 -0.384091 0 0 0 -3.04508 8.30377 1.55262 0.01 
77 1 8 0.168878 -0.147959 0.144409 0.372933 -0.148767 -0.434026 0 0 0 -3.04508 8.30377 1.55262 0.01 
78 1 8 0.174473 -0.146818 0.151366 0.428926 -0.118897 -0.483961 0 0 0 -3.04508 8.30377 1.55262 0.01 
79 1 8 0.180068 -0.145677 0.158322 0.48492 -0.0890263 -0.533895 0 0 0 -3.04508 8.30377 1.55262 0.01 
80 1 8 0.185663 -0.144536 0.165279 0.540914 -0.0591561 -0.58383 0 0 0 -3.04508 8.30377 1.55262 0.01 
81 1 9 -0.127216 0.0425267 0.0678556 -0.13698 -0.00833132 -0.177707 0.562318 -0.530412 1.41754 1.89059 -0.569529 5.09498 0.01 
82 1 9 -0.120761 0.0417119 0.0740736 -0.13637 0.0128032 -0.17557 0 0 0 1.89059 -0.569529 5.09498 0.01 
83 1 9 -0.114305 0.0408972 0.0802916 -0.13576 0.0339378 -0.173434 0 0 0 1.89059 -0.569529 5.09498 0.01 
84 1 9 -0.10785 0.0400824 0.0865096 -0.13515 0.0550723 -0.171298 0 0 0 1.89059 -0.569529 5.09498 0.01 
85 1 9 -0.101394 0.0392676 0.0927276 -0.13454 0.0762069 -0.169162 0 0 0 1.89059 -0.569529 5.09498 0.01 
86 1 9 -0.0949389 0.0384529 0.0989457 -0.13393 0.0973414 -0.167026 0 0 0 1.89059 -0.569529 5.09498 0.01 
87 1 9 -0.0884835 0.0376381 0.105164 -0.133321 0.118476 -0.16489 -0.489545 -0.148595 1.56017 1.89059 -0.569529 5.09498 0.01 
88 1 9 -0.0820281 0.0368234 0.111382 -0.132711 0.139611 -0.162753 0 0 0 1.89059 -0.569529 5.09498 0.01 
89 1 9 -0.0755727 0.0360086 0.1176 -0.132101 0.160745 -0.160617 -0.22397 0.614646 0.677901 1.89059 -0.569529 5.09498 0.01 
90 1 9 -0.0691172 0.0351938 0.123818 -0.131491 0.18188 -0.158481 -0.217561 -0.57127 -0.8212 1.89059 -0.569529 5.09498 0.01 
91 1 10 0.0605222 0.21734 0.105974 0.108851 0.388457 0.00124622 0.183941 0.157757 0.324184 -1.21171 -5.12234 -2.12542 0.01 
92 1 10 0.0561569 0.220317 0.11326 0.0778587 0.406564 -0.0247215 0 0 0 -1.21171 -5.12234 -2.12542 0.01 
93 1 10 0.0517916 0.223294 0.120546 0.0468659 0.42467 -0.0506892 0 0 0 -1.21171 -5.12234 -2.12542 0.01 
94 1 10 0.0474263 0.226271 0.127832 0.0158731 0.442776 -0.0766569 0 0 0 -1.21171 -5.12234 -2.12542 0.01 
95 1 10 0.043061 0.229248 0.135117 -0.0151198 0.460883 -0.102625 0 0 0 -1.21171 -5.12234 -2.12542 0.01 
96 1 10 0.0386957 0.232225 0.142403 -0.0461126 0.478989 -0.128592 0 0 0 -1.21171 -5.12234 -2.12542 0.01 
97 1 10 0.0343304 0.235202 0.149689 -0.0771054 0.497095 -0.15456 0 0 0 -1.21171 -5.12234 -2.12542 0.01 
98 1 10 0.0299652 0.238179 0.156975 -0.108098 0.515201 -0.180528 0 0 0 -1.21171 -5.12234 -2.12542 0.01 
99 1 10 0.0255999 0.241156 0.16426 -0.139091 0.533308 -0.206495 0 0 0 -1.21171 -5.12234 -2.12542 0.01 
100 1 10 0.0212346 0.244133 0.171546 -0.170084 0.551414 -0.232463 0 0 0 -1.21171 -5.12234 -2.12542 0.01 
101 1 11 -0.241523 -0.0822394 0.0098772 -0.0446867 0.0467603 0.0960015 0.0618398 -0.322314 -0.849451 7.17567 -0.525277 -3.68328 0.01 
102 1 11 -0.240118 -0.0867522 0.0175362 -0.065332 -0.0133733 0.0643567 0 0 0 7.17567 -0.525277 -3.68328 0.01 
103 1 11 -0.238713 -0.0912651 0.0251951 -0.0859772 -0.0735069 0.032712 0.363302 0.692259 0.990921 7.17567 -0.525277 -3.68328 0.01 
104 1 11 -0.237308 -0.0957779 0.0328541 -0.106622 -0.13364 0.00106721 -0.139561 -0.434285 -0.506528 7.17567 -0.525277 -3.68328 0.01 
105 1 11 -0.235903 -0.100291 0.0405131 -0.127268 -0.193774 -0.0305776 0 0 0 7.17567 -0.525277 -3.68328 0.01 
106 1 11 -0.234498 -0.104804 0.0481721 -0.147913 -0.253908 -0.0622223 -0.00770912 0.000227829 -0.00204535 7.17567 -0.525277 -3.68328 0.01 
107 1 11 -0.233093 -0.109317 0.055831 -0.168558 -0.314041 -0.0938671 0 0 0 7.17567 -0.525277 -3.68328 0.01 
108 1 11 -0.231688 -0.113829 0.06349 -0.189203 -0.374175 -0.125512 0 0 0 7.17567 -0.525277 -3.68328 0.01 
109 1 11 -0.230283 -0.118342 0.071149 -0.209849 -0.434308 -0.157157 0 0 0 7.17567 -0.525277 -3.68328 0.01 
110 1 11 -0.228877 -0.122855 0.0788079 -0.230494 -0.494442 -0.188801 -0.0253428 0.115226 -0.0119452 7.17567 -0.525277 -3.68328 0.01 
111 1 12 0.115018 0.0478025 0.0543241 0.226167 -0.213909 -0.201167 0.328305 0.470717 0.421644 -5.0629 -6.55125 -12.6389 0.01 
112 1 12 0.115307 0.0508854 0.0627747 0.209771 -0.174773 -0.214884 0 0 0 -5.0629 -6.55125 -12.6389 0.01 
113 1 12 0.115596 0.0539684 0.0712252 0.193374 -0.135637 -0.228601 1.24796 -0.0530551 0.77088 -5.0629 -6.55125 -12.6389 0.01 
114 1 12 0.115885 0.0570513 0.0796758 0.176977 -0.0965019 -0.242319 0 0 0 -5.0629 -6.55125 -12.6389 0.01 
115 1 12 0.116173 0.0601343 0.0881264 0.160581 -0.0573663 -0.256036 -2.05958 -0.0167394 1.5379 -5.0629 -6.55125 -12.6389 0.01 
116 1 12 0.116462 0.0632172 0.0965769 0.144184 -0.0182307 -0.269753 0 0 0 -5.0629 -6.55125 -12.6389 0.01 
117 1 12 0.116751 0.0663002 0.105028 0.127787 0.0209048 -0.283471 0 0 0 -5.0629 -6.55125 -12.6389 0.01 
118 1 12 0.117039 0.0693831 0.113478 0.111391 0.0600404 -0.297188 0 0 0 -5.0629 -6.55125 -12.6389 0.01 
119 1 12 0.117328 0.072466 0.121929 0.0949938 0.099176 -0.310905 0 0 0 -5.0629 -6.55125 -12.6389 0.01 
120 1 12 0.117617 0.075549 0.130379 0.0785971 0.138312 -0.324622 0.531433 0.14386 -0.83941 -5.0629 -6.55125 -12.6389 0.01 
121 1 13 -0.00106916 0.263774 0.0831184 0.105912 0.508786 -0.205778 0 0 0 2.39693 4.30296 -2.41286 0.01 
122 1 13 -0.00564468 0.258937 0.089173 0.120292 0.505314 -0.197686 -0.106783 -0.0903038 -0.637455 2.39693 4.30296 -2.41286 0.01 
123 1 13 -0.0102202 0.254099 0.0952276 0.134671 0.501842 -0.189594 -0.208225 -0.0130189 -0.231183 2.39693 4.30296 -2.41286 0.01 
124 1 13 -0.0147957 0.249261 0.101282 0.149051 0.498369 -0.181502 0.65583 0.336426 1.88831 2.39693 4.30296 -2.41286 0.01 
125 1 13 -0.0193713 0.244423 0.107337 0.16343 0.494897 -0.17341 0 0 0 2.39693 4.30296 -2.41286 0.01 
126 1 13 -0.0239468 0.239585 0.113391 0.177809 0.491424 -0.165318 0 0 0 2.39693 4.30296 -2.41286 0.01 
127 1 13 -0.0285223 0.234747 0.119446 0.192189 0.487952 -0.157226 0 0 0 2.39693 4.30296 -2.41286 0.01 
128 1 13 -0.0330978 0.229909 0.125501 0.206568 0.48448 -0.149134 0 0 0 2.39693 4.30296 -2.41286 0.01 
129 1 13 -0.0376734 0.225071 0.131555 0.220948 0.481007 -0.141042 0 0 0 2.39693 4.30296 -2.41286 0.01 
130 1 13 -0.0422489 0.220233 0.13761 0.235327 0.477535 -0.13295 0 0 0 2.39693 4.30296 -2.41286 0.01 
131 1 14 -0.0479385 0.125634 0.009699 0.0159994 0.0240594 0.00124969 -0.543612 0.606372 0.119938 -1.1784 1.04102 3.75451 0.01 
132 1 14 -0.0453963 0.130119 0.017076 0.00683958 0.0422973 -0.00668211 0.637333 -0.482633 -0.872625 -1.1784 1.04102 3.75451 0.01 
133 1 14 -0.0428541 0.134604 0.0244531 -0.00232028 0.0605351 -0.0146139 -0.207763 -0.500316 1.9753 -1.1784 1.04102 3.75451 0.01 
134 1 14 -0.0403119 0.139089 0.0318301 -0.0114801 0.078773 -0.0225457 0 0 0 -1.1784 1.04102 3.75451 0.01 
135 1 14 -0.0377697 0.143574 0.0392072 -0.02064 0.0970108 -0.0304775 0 0 0 -1.1784 1.04102 3.75451 0.01 
136 1 14 -0.0352275 0.14806 0.0465842 -0.0297998 0.115249 -0.0384093 0 0 0 -1.1784 1.04102 3.75451 0.01 
137 1 14 -0.0326853 0.152545 0.0539612 -0.0389597 0.133487 -0.0463411 0 0 0 -1.1784 1.04102 3.75451 0.01 
138 1 14 -0.0301431 0.15703 0.0613383 -0.0481196 0.151724 -0.0542729 0 0 0 -1.1784 1.04102 3.75451 0.01 
139 1 14 -0.0276009 0.161515 0.0687153 -0.0572794 0.169962 -0.0622047 -0.00349898 0.181694 -0.120632 -1.1784 1.04102 3.75451 0.01 
140 1 14 -0.0250587 0.166 0.0760923 -0.0664393 0.1882 -0.0701365 0 0 0 -1.1784 1.04102 3.75451 0.01 
141 1 15 -0.00703347 -0.0598233 0.00990113 -0.0517253 0.036557 0.00570092 -0.265164 -0.136156 0.711987 -3.80436 -4.95588 13.5846 0.01 
142 1 15 -0.0106073 -0.062213 0.0178079 -0.0584471 0.0180889 -0.00291899 0 0 0 -3.80436 -4.95588 13.5846 0.01 
143 1 15 -0.014181 -0.0646027 0.0257147 -0.065169 -0.000379179 -0.0115389 0 0 0 -3.80436 -4.95588 13.5846 0.01 
144 1 15 -0.0177548 -0.0669924 0.0336215 -0.0718908 -0.0188473 -0.0201588 0 0 0 -3.80436 -4.95588 13.5846 0.01 
145 1 15 -0.0213286 -0.0693821 0.0415283 -0.0786126 -0.0373154 -0.0287787 0 0 0 -3.80436 -4.95588 13.5846 0.01 
146 1 15 -0.0249024 -0.0717718 0.0494351 -0.0853344 -0.0557835 -0.0373987 0 0 0 -3.80436 -4.95588 13.5846 0.01 
147 1 15 -0.0284762 -0.0741616 0.0573419 -0.0920563 -0.0742516 -0.0460186 0 0 0 -3.80436 -4.95588 13.5846 0.01 
148 1 15 -0.03205 -0.0765513 0.0652487 -0.0987781 -0.0927197 -0.0546385 0 0 0 -3.80436 -4.95588 13.5846 0.01 
149 1 15 -0.0356238 -0.078941 0.0731554 -0.1055 -0.111188 -0.0632584 -0.0326745 0.0241354 -0.100098 -3.80436 -4.95588 13.5846 0.01 
150 1 15 -0.0391976 -0.0813307 0.0810622 -0.112222 -0.129656 -0.0718783 0 0 0 -3.80436 -4.95588 13.5846 0.01 
151 1 16 -0.0393493 0.179495 0.00999847 -0.0728108 0.0240655 0.0179786 0.69349 0.076166 -0.120649 -3.64895 3.78309 3.485 0.01 
152 1 16 -0.0378184 0.18434 0.0174269 -0.0615934 0.0565066 -0.00549223 0 0 0 -3.64895 3.78309 3.485 0.01 
153 1 16 -0.0362875 0.189186 0.0248554 -0.050376 0.0889477 -0.0289631 -0.125937 -0.218517 0.680142 -3.64895 3.78309 3.485 0.01 
154 1 16 -0.0347566 0.194031 0.0322838 -0.0391586 0.121389 -0.0524339 -0.046236 0.0467187 0.032901 -3.64895 3.78309 3.485 0.01 
155 1 16 -0.0332258 0.198876 0.0397122 -0.0279412 0.15383 -0.0759048 -0.0194092 0.0523849 -0.00647666 -3.64895 3.78309 3.485 0.01 
156 1 16 -0.0316949 0.203721 0.0471407 -0.0167238 0.186271 -0.0993757 0.0433127 0.0195333 0.00115905 -3.64895 3.78309 3.485 0.01 
157 1 16 -0.030164 0.208566 0.0545691 -0.00550642 0.218712 -0.122847 0.0310885 -0.00463181 -0.00782515 -3.64895 3.78309 3.485 0.01 
158 1 16 -0.0286331 0.213411 0.0619976 0.00571098 0.251153 -0.146317 0 0 0 -3.64895 3.78309 3.485 0.01 
159 1 16 -0.0271022 0.218256 0.069426 0.0169284 0.283594 -0.169788 0 0 0 -3.64895 3.78309 3.485 0.01 
160 1 16 -0.0255714 0.223101 0.0768544 0.0281458 0.316036 -0.193259 0.00515058 0.127556 -0.00186586 -3.64895 3.78309 3.485 0.01 
161 1 17 0.0742035 0.0896663 0.00988722 0.00069642 -0.0427909 0.0232964 -0.0215986 0.0539843 0.535011 3.905 -0.482788 12.7747 0.01 
162 1 17 0.0772829 0.0878564 0.018148 0.0198298 -0.0357107 0.0177153 0 0 0 3.905 -0.482788 12.7747 0.01 
163 1 17 0.0803623 0.0860464 0.0264089 0.0389631 -0.0286304 0.0121341 0 0 0 3.905 -0.482788 12.7747 0.01 
164 1 17 0.0834418 0.0842365 0.0346697 0.0580965 -0.0215501 0.00655296 0 0 0 3.905 -0.482788 12.7747 0.01 
165 1 17 0.0865212 0.0824265 0.0429305 0.0772298 -0.0144698 0.000971797 0 0 0 3.905 -0.482788 12.7747 0.01 
166 1 17 0.0896007 0.0806166 0.0511913 0.0963632 -0.00738956 -0.00460937 -0.0697893 0.0204535 -0.0162019 3.905 -0.482788 12.7747 0.01 
167 1 17 0.0926801 0.0788066 0.0594521 0.115497 -0.000309281 -0.0101905 0.377174 -0.175206 -0.451029 3.905 -0.482788 12.7747 0.01 
168 1 17 0.0957595 0.0769967 0.067713 0.13463 0.006771 -0.0157717 0.00506884 -0.00190637 -0.00586133 3.905 -0.482788 12.7747 0.01 
169 1 17 0.098839 0.0751867 0.0759738 0.153763 0.0138513 -0.0213529 0 0 0 3.905 -0.482788 12.7747 0.01 
170 1 17 0.101918 0.0733768 0.0842346 0.172897 0.0209316 -0.026934 -0.867052 0.632935 -0.805767 3.905 -0.482788 12.7747 0.01 
171 1 18 -0.312762 -0.0445722 0.0346649 -0.496744 0.00151791 -0.779135 0 0 0 -4.72911 -3.52054 -8.51438 0.01 
172 1 18 -0.308848 -0.0425951 0.0425245 -0.507581 0.00536219 -0.774705 0 0 0 -4.72911 -3.52054 -8.51438 0.01 
173 1 18 -0.304934 -0.0406181 0.0503841 -0.518418 0.00920648 -0.770276 0 0 0 -4.72911 -3.52054 -8.51438 0.01 
174 1 18 -0.301021 -0.0386411 0.0582436 -0.529254 0.0130508 -0.765846 0 0 0 -4.72911 -3.52054 -8.51438 0.01 
175 1 18 -0.297107 -0.0366641 0.0661032 -0.540091 0.016895 -0.761417 0 0 0 -4.72911 -3.52054 -8.51438 0.01 
176 1 18 -0.293193 -0.0346871 0.0739627 -0.550928 0.0207393 -0.756987 0 0 0 -4.72911 -3.52054 -8.51438 0.01 
177 1 18 -0.289279 -0.03271 0.0818223 -0.561765 0.0245836 -0.752558 0 0 0 -4.72911 -3.52054 -8.51438 0.01 
178 1 18 -0.285365 -0.030733 0.0896819 -0.572602 0.0284279 -0.748128 0 0 0 -4.72911 -3.52054 -8.51438 0.01 
179 1 18 -0.281451 -0.028756 0.0975414 -0.583439 0.0322722 -0.743699 0 0 0 -4.72911 -3.52054 -8.51438 0.01 
180 1 18 -0.277537 -0.026779 0.105401 -0.594275 0.0361164 -0.739269 0 0 0 -4.72911 -3.52054 -8.51438 0.01 
181 1 19 0.0180557 0.200276 0.0973304 -0.0134298 0.250706 -0.0870256 -0.140322 0.220549 0.173521 1.11989 -8.99388 10.0412 0.01 
182 1 19 0.0174906 0.193356 0.103057 0.00455316 0.238618 -0.0998581 0 0 0 1.11989 -8.99388 10.0412 0.01 
183 1 19 0.0169254 0.186436 0.108783 0.0225361 0.226531 -0.112691 0 0 0 1.11989 -8.99388 10.0412 0.01 
184 1 19 0.0163603 0.179516 0.11451 0.0405191 0.214443 -0.125523 0 0 0 1.11989 -8.99388 10.0412 0.01 
185 1 19 0.0157952 0.172595 0.120236 0.0585021 0.202356 -0.138355 0 0 0 1.11989 -8.99388 10.0412 0.01 
186 1 19 0.0152301 0.165675 0.125963 0.0764851 0.190268 -0.151188 0 0 0 1.11989 -8.99388 10.0412 0.01 
187 1 19 0.0146649 0.158755 0.131689 0.094468 0.178181 -0.16402 0 0 0 1.11989 -8.99388 10.0412 0.01 
188 1 19 0.0140998 0.151835 0.137416 0.112451 0.166093 -0.176853 0 0 0 1.11989 -8.99388 10.0412 0.01 
189 1 19 0.0135347 0.144915 0.143142 0.130434 0.154006 -0.189685 0 0 0 1.11989 -8.99388 10.0412 0.01 
190 1 19 0.0129696 0.137995 0.148869 0.148417 0.141918 -0.202518 -0.00240288 0.704983 0.548465 1.11989 -8.99388 10.0412 0.01 
191 1 20 -0.00865239 0.191048 0.00998375 -0.0979988 0.0316223 -0.00805476 0.0758279 0.0113174 0.153336 -5.40833 5.32654 2.3962 0.01 
192 1 20 -0.00622912 0.196658 0.0165911 -0.076247 0.0731636 -0.0513026 0 0 0 -5.40833 5.32654 2.3962 0.01 
193 1 20 -0.00380584 0.202268 0.0231984 -0.0544952 0.114705 -0.0945504 0.0671884 0.0476704 -0.000748736 -5.40833 5.32654 2.3962 0.01 
194 1 20 -0.00138256 0.207878 0.0298058 -0.0327434 0.156246 -0.137798 -0.0144227 0.00136578 0.0112109 -5.40833 5.32654 2.3962 0.01 
195 1 20 0.00104071 0.213488 0.0364131 -0.0109916 0.197787 -0.181046 -0.104708 0.00881943 0.0813727 -5.40833 5.32654 2.3962 0.01 
196 1 20 0.00346399 0.219098 0.0430204 0.0107603 0.239329 -0.224294 -0.130552 0.00947682 0.101405 -5.40833 5.32654 2.3962 0.01 
197 1 20 0.00588727 0.224708 0.0496277 0.0325121 0.28087 -0.267542 -0.0883381 0.00528436 0.0685725 -5.40833 5.32654 2.3962 0.01 
198 1 20 0.00831054 0.230318 0.0562351 0.0542639 0.322411 -0.310789 0 0 0 -5.40833 5.32654 2.3962 0.01 
199 1 20 0.0107338 0.235928 0.0628424 0.0760157 0.363953 -0.354037 0 0 0 -5.40833 5.32654 2.3962 0.01 
200 1 20 0.0131571 0.241537 0.0694497 0.0977675 0.405494 -0.397285 0 0 0 -5.40833 5.32654 2.3962 0.01 
201 1 21 0.0161632 0.00627587 0.0107756 -0.144239 0.0464299 -0.0624769 0 0 0 0.140356 -7.83755 -8.07407 0.01 
202 1 21 0.014067 0.0117889 0.0175735 -0.153005 0.0624007 -0.0781323 0 0 0 0.140356 -7.83755 -8.07407 0.01 
203 1 21 0.0119707 0.017302 0.0243715 -0.161771 0.0783716 -0.0937878 0.787018 0.29897 -1.11077 0.140356 -7.83755 -8.07407 0.01 
204 1 21 0.00987453 0.0228151 0.0311694 -0.170537 0.0943425 -0.109443 -0.738764 -0.858453 2.66218 0.140356 -7.83755 -8.07407 0.01 
205 1 21 0.00777831 0.0283282 0.0379673 -0.179304 0.110313 -0.125099 -1.00287 0.145615 -1.09073 0.140356 -7.83755 -8.07407 0.01 
206 1 21 0.00568209 0.0338412 0.0447653 -0.18807 0.126284 -0.140754 0 0 0 0.140356 -7.83755 -8.07407 0.01 
207 1 21 0.00358587 0.0393543 0.0515632 -0.196836 0.142255 -0.15641 0 0 0 0.140356 -7.83755 -8.07407 0.01 
208 1 21 0.00148965 0.0448674 0.0583611 -0.205602 0.158226 -0.172065 0 0 0 0.140356 -7.83755 -8.07407 0.01 
209 1 21 -0.000606571 0.0503805 0.0651591 -0.214369 0.174197 -0.18772 0 0 0 0.140356 -7.83755 -8.07407 0.01 
210 1 21 -0.00270279 0.0558935 0.071957 -0.223135 0.190168 -0.203376 0.163586 -0.216472 -0.557759 0.140356 -7.83755 -8.07407 0.01 
211 1 22 0.0157992 0.252868 0.0866622 0.0764264 0.32491 -0.261188 0 0 0 -5.00582 -9.83979 5.51351 0.01 
212 1 22 0.0130478 0.246587 0.0924922 0.0536863 0.338924 -0.256824 0 0 0 -5.00582 -9.83979 5.51351 0.01 
213 1 22 0.0102964 0.240307 0.0983222 0.0309462 0.352938 -0.25246 0 0 0 -5.00582 -9.83979 5.51351 0.01 
214 1 22 0.00754502 0.234027 0.104152 0.00820615 0.366952 -0.248096 0 0 0 -5.00582 -9.83979 5.51351 0.01 
215 1 22 0.00479361 0.227747 0.109982 -0.0145339 0.380966 -0.243731 0 0 0 -5.00582 -9.83979 5.51351 0.01 
216 1 22 0.00204221 0.221467 0.115812 -0.037274 0.39498 -0.239367 0 0 0 -5.00582 -9.83979 5.51351 0.01 
217 1 22 -0.000709196 0.215187 0.121642 -0.0600141 0.408994 -0.235003 0 0 0 -5.00582 -9.83979 5.51351 0.01 
218 1 22 -0.0034606 0.208906 0.127472 -0.0827542 0.423008 -0.230639 0 0 0 -5.00582 -9.83979 5.51351 0.01 
219 1 22 -0.00621201 0.202626 0.133302 -0.105494 0.437022 -0.226274 0 0 0 -5.00582 -9.83979 5.51351 0.01 
220 1 22 -0.00896341 0.196346 0.139132 -0.128234 0.451036 -0.22191 0 0 0 -5.00582 -9.83979 5.51351 0.01 
221 1 23 0.240589 0.0494319 0.101618 0.441073 0.0946371 -0.236116 -0.0775926 1.40859 -2.24988 -3.76229 -0.888304 5.19241 0.01 
222 1 23 0.235979 0.0549575 0.107023 0.407581 0.0910326 -0.261 0 0 0 -3.76229 -0.888304 5.19241 0.01 
223 1 23 0.231368 0.060483 0.112427 0.374089 0.0874281 -0.285884 0 0 0 -3.76229 -0.888304 5.19241 0.01 
224 1 23 0.226758 0.0660086 0.117832 0.340597 0.0838235 -0.310768 -0.265668 -0.619028 0.202776 -3.76229 -0.888304 5.19241 0.01 
225 1 23 0.222148 0.0715341 0.123237 0.307105 0.080219 -0.335652 2.09857 -2.63627 6.15317 -3.76229 -0.888304 5.19241 0.01 
226 1 23 0.217537 0.0770596 0.128642 0.273613 0.0766145 -0.360536 0 0 0 -3.76229 -0.888304 5.19241 0.01 
227 1 23 0.212927 0.0825852 0.134047 0.240121 0.0730099 -0.385421 0 0 0 -3.76229 -0.888304 5.19241 0.01 
228 1 23 0.208316 0.0881107 0.139452 0.206629 0.0694054 -0.410305 0 0 0 -3.76229 -0.888304 5.19241 0.01 
229 1 23 0.203706 0.0936363 0.144857 0.173137 0.0658008 -0.435189 0 0 0 -3.76229 -0.888304 5.19241 0.01 
230 1 23 0.199095 0.0991618 0.150261 0.139645 0.0621963 -0.460073 0 0 0 -3.76229 -0.888304 5.19241 0.01 
231 1 24 0.164282 0.0223513 0.010149 0.090447 -0.0898443 0.053623 0 0 0 2.39281 1.30395 3.83855 0.01 
232 1 24 0.170956 0.0204777 0.0158886 0.105123 -0.0779583 0.0404368 0 0 0 2.39281 1.30395 3.83855 0.01 
233 1 24 0.177631 0.018604 0.0216282 0.119799 -0.0660723 0.0272505 -0.354198 -0.102145 0.41815 2.39281 1.30395 3.83855 0.01 
234 1 24 0.184305 0.0167304 0.0273677 0.134476 -0.0541863 0.0140643 0.0151824 0.00657775 -0.0154628 2.39281 1.30395 3.83855 0.01 
235 1 24 0.190979 0.0148567 0.0331073 0.149152 -0.0423003 0.000878027 0 0 0 2.39281 1.30395 3.83855 0.01 
236 1 24 0.197654 0.0129831 0.0388469 0.163828 -0.0304143 -0.0123082 0 0 0 2.39281 1.30395 3.83855 0.01 
237 1 24 0.204328 0.0111094 0.0445865 0.178504 -0.0185283 -0.0254945 0 0 0 2.39281 1.30395 3.83855 0.01 
238 1 24 0.211002 0.00923578 0.0503261 0.19318 -0.00664225 -0.0386807 0 0 0 2.39281 1.30395 3.83855 0.01 
239 1 24 0.217677 0.00736213 0.0560657 0.207857 0.00524376 -0.051867 -0.326994 0.248248 0.836851 2.39281 1.30395 3.83855 0.01 
240 1 24 0.224351 0.00548848 0.0618052 0.222533 0.0171298 -0.0650532 0 0 0 2.39281 1.30395 3.83855 0.01 
241 1 25 0.139767 -0.197748 0.0903644 -0.0645926 -0.0736383 -0.765673 0 0 0 4.56012 13.2832 14.4555 0.01 
242 1 25 0.140517 -0.19285 0.0978774 -0.0356012 -0.0970493 -0.753306 0 0 0 4.56012 13.2832 14.4555 0.01 
243 1 25 0.141268 -0.187951 0.10539 -0.00660977 -0.12046 -0.740939 0 0 0 4.56012 13.2832 14.4555 0.01 
244 1 25 0.142018 -0.183053 0.112903 0.0223817 -0.143871 -0.728572 0 0 0 4.56012 13.2832 14.4555 0.01 
245 1 25 0.142769 -0.178155 0.120416 0.0513731 -0.167282 -0.716205 0 0 0 4.56012 13.2832 14.4555 0.01 
246 1 25 0.143519 -0.173257 0.127929 0.0803645 -0.190693 -0.703838 0 0 0 4.56012 13.2832 14.4555 0.01 
247 1 25 0.14427 -0.168359 0.135442 0.109356 -0.214105 -0.691471 0 0 0 4.56012 13.2832 14.4555 0.01 
248 1 25 0.14502 -0.163461 0.142955 0.138347 -0.237516 -0.679105 0 0 0 4.56012 13.2832 14.4555 0.01 
249 1 25 0.145771 -0.158563 0.150468 0.167339 -0.260927 -0.666738 0 0 0 4.56012 13.2832 14.4555 0.01 
250 1 25 0.146521 -0.153664 0.157981 0.19633 -0.284338 -0.654371 0 0 0 4.56012 13.2832 14.4555 0.01 
251 1 26 -0.00519516 -0.175807 0.0099979 0.14701 0.0165912 0.0322909 -0.716787 -0.469118 -0.234835 5.04247 4.65291 -10.6 0.01 
252 1 26 -0.00419222 -0.181019 0.017266 0.125578 -0.0306893 0.00134132 0 0 0 5.04247 4.65291 -10.6 0.01 
253 1 26 -0.00318928 -0.186231 0.0245342 0.104145 -0.0779697 -0.0296083 0.555425 1.43395 1.59253 5.04247 4.65291 -10.6 0.01 
254 1 26 -0.00218635 -0.191444 0.0318023 0.0827127 -0.12525 -0.0605578 0.155952 -0.52705 -0.57917 5.04247 4.65291 -10.6 0.01 
255 1 26 -0.00118341 -0.196656 0.0390704 0.0612802 -0.172531 -0.0915074 0 0 0 5.04247 4.65291 -10.6 0.01 
256 1 26 -0.000180472 -0.201868 0.0463386 0.0398477 -0.219811 -0.122457 0 0 0 5.04247 4.65291 -10.6 0.01 
257 1 26 0.000822465 -0.207081 0.0536067 0.0184151 -0.267092 -0.153407 0 0 0 5.04247 4.65291 -10.6 0.01 
258 1 26 0.0018254 -0.212293 0.0608748 -0.00301739 -0.314372 -0.184356 0 0 0 5.04247 4.65291 -10.6 0.01 
259 1 26 0.00282834 -0.217505 0.068143 -0.0244499 -0.361652 -0.215306 -0.0869593 0.0628699 -0.0109584 5.04247 4.65291 -10.6 0.01 
260 1 26 0.00383128 -0.222718 0.0754111 -0.0458824 -0.408933 -0.246255 -0.00698966 0.00529928 -0.000572518 5.04247 4.65291 -10.6 0.01 
261 1 27 -0.134076 0.215774 0.0832233 -0.13602 0.436607 -0.437279 0 0 0 -5.83918 -14.2951 8.45616 0.01 