ITEM: TIMESTEP
25000
ITEM: NUMBER OF ATOMS
6300
ITEM: BOX BOUNDS mm mm mm
-0.352812 0.331356
-0.321896 0.364604
0 0.5
ITEM: ATOMS id type mol x y z vx vy vz fx fy fz omegax omegay omegaz radius 
1 1 1 -0.122144 -0.11596 0.0903836 -0.0988015 0.0947794 -0.273985 0.0993258 -0.330309 0.17047 3.53352 -0.0167276 -2.57527 0.01 
2 1 1 -0.122207 -0.118267 0.0990826 -0.104889 0.0642059 -0.28214 -0.81991 1.1768 1.78098 3.53352 -0.0167276 -2.57527 0.01 
3 1 1 -0.122271 -0.120574 0.107782 -0.110977 0.0336323 -0.290294 0 0 0 3.53352 -0.0167276 -2.57527 0.01 
4 1 1 -0.122335 -0.122882 0.11648 -0.117064 0.00305883 -0.298448 0 0 0 3.53352 -0.0167276 -2.57527 0.01 
5 1 1 -0.122399 -0.125189 0.125179 -0.123152 -0.0275147 -0.306602 0 0 0 3.53352 -0.0167276 -2.57527 0.01 
6 1 1 -0.122463 -0.127497 0.133878 -0.12924 -0.0580882 -0.314757 0 0 0 3.53352 -0.0167276 -2.57527 0.01 
7 1 1 -0.122527 -0.129804 0.142577 -0.135327 -0.0886617 -0.322911 0 0 0 3.53352 -0.0167276 -2.57527 0.01 
8 1 1 -0.12259 -0.132111 0.151276 -0.141415 -0.119235 -0.331065 0 0 0 3.53352 -0.0167276 -2.57527 0.01 
9 1 1 -0.122654 -0.134419 0.159975 -0.147503 -0.149809 -0.33922 0 0 0 3.53352 -0.0167276 -2.57527 0.01 
10 1 1 -0.122718 -0.136726 0.168674 -0.15359 -0.180382 -0.347374 0 0 0 3.53352 -0.0167276 -2.57527 0.01 
11 1 2 -0.0220447 -0.118854 0.039325 0.00296388 -0.0922078 -0.0521836 -0.505028 0.917394 1.4749 1.78135 -1.12646 1.1156 0.01 
12 1 2 -0.0241701 -0.118715 0.0480694 -0.0070409 -0.110156 -0.0543309 0 0 0 1.78135 -1.12646 1.1156 0.01 
13 1 2 -0.0262956 -0.118576 0.0568137 -0.0170457 -0.128104 -0.0564782 0 0 0 1.78135 -1.12646 1.1156 0.01 
14 1 2 -0.0284211 -0.118438 0.065558 -0.0270505 -0.146051 -0.0586255 0 0 0 1.78135 -1.12646 1.1156 0.01 
15 1 2 -0.0305465 -0.118299 0.0743023 -0.0370552 -0.163999 -0.0607727 0 0 0 1.78135 -1.12646 1.1156 0.01 
16 1 2 -0.032672 -0.118161 0.0830467 -0.04706 -0.181947 -0.06292 0.386645 -1.97845 -0.94848 1.78135 -1.12646 1.1156 0.01 
17 1 2 -0.0347974 -0.118022 0.091791 -0.0570648 -0.199895 -0.0650673 0.100988 0.0511324 0.107245 1.78135 -1.12646 1.1156 0.01 
18 1 2 -0.0369229 -0.117883 0.100535 -0.0670696 -0.217843 -0.0672145 0 0 0 1.78135 -1.12646 1.1156 0.01 
19 1 2 -0.0390484 -0.117745 0.10928 -0.0770743 -0.235791 -0.0693618 0 0 0 1.78135 -1.12646 1.1156 0.01 
20 1 2 -0.0411738 -0.117606 0.118024 -0.0870791 -0.253739 -0.0715091 -0.240326 0.491336 -0.340509 1.78135 -1.12646 1.1156 0.01 
21 1 3 -0.0281251 -0.0342935 0.00995952 -0.018269 -0.085913 0.0143331 -0.0380486 -0.0114547 -0.0521814 -0.912262 -3.45711 4.40003 0.01 
22 1 3 -0.0309028 -0.0390439 0.0170811 -0.0219871 -0.0916383 0.00906386 0 0 0 -0.912262 -3.45711 4.40003 0.01 
23 1 3 -0.0336805 -0.0437944 0.0242028 -0.0257052 -0.0973636 0.00379461 0 0 0 -0.912262 -3.45711 4.40003 0.01 
24 1 3 -0.0364582 -0.0485448 0.0313244 -0.0294233 -0.103089 -0.00147463 0 0 0 -0.912262 -3.45711 4.40003 0.01 
25 1 3 -0.039236 -0.0532953 0.038446 -0.0331414 -0.108814 -0.00674388 0.0545643 -0.0297837 0.216603 -0.912262 -3.45711 4.40003 0.01 
26 1 3 -0.0420137 -0.0580457 0.0455676 -0.0368596 -0.114539 -0.0120131 0.744871 -0.429543 0.444844 -0.912262 -3.45711 4.40003 0.01 
27 1 3 -0.0447914 -0.0627962 0.0526893 -0.0405777 -0.120265 -0.0172824 0 0 0 -0.912262 -3.45711 4.40003 0.01 
28 1 3 -0.0475691 -0.0675466 0.0598109 -0.0442958 -0.12599 -0.0225516 0 0 0 -0.912262 -3.45711 4.40003 0.01 
29 1 3 -0.0503469 -0.0722971 0.0669325 -0.0480139 -0.131715 -0.0278209 -0.497493 1.01027 0.684906 -0.912262 -3.45711 4.40003 0.01 
30 1 3 -0.0531246 -0.0770475 0.0740541 -0.051732 -0.137441 -0.0330901 0.127788 -0.706109 -0.700746 -0.912262 -3.45711 4.40003 0.01 
31 1 4 -0.0888861 0.113538 0.00992469 -0.0216397 0.038757 -0.00438683 -0.0837098 0.198828 0.625199 -4.17352 -2.16676 0.0750688 0.01 
32 1 4 -0.0897767 0.116822 0.0182568 -0.0399399 0.0734645 -0.020021 0 0 0 -4.17352 -2.16676 0.0750688 0.01 
33 1 4 -0.0906673 0.120105 0.0265889 -0.0582401 0.108172 -0.0356553 0 0 0 -4.17352 -2.16676 0.0750688 0.01 
34 1 4 -0.091558 0.123389 0.0349211 -0.0765403 0.142879 -0.0512895 0 0 0 -4.17352 -2.16676 0.0750688 0.01 
35 1 4 -0.0924486 0.126673 0.0432532 -0.0948405 0.177587 -0.0669237 0 0 0 -4.17352 -2.16676 0.0750688 0.01 
36 1 4 -0.0933392 0.129956 0.0515853 -0.113141 0.212294 -0.0825579 0 0 0 -4.17352 -2.16676 0.0750688 0.01 
37 1 4 -0.0942298 0.13324 0.0599174 -0.131441 0.247002 -0.0981921 0 0 0 -4.17352 -2.16676 0.0750688 0.01 
38 1 4 -0.0951204 0.136524 0.0682496 -0.149741 0.281709 -0.113826 0 0 0 -4.17352 -2.16676 0.0750688 0.01 
39 1 4 -0.096011 0.139807 0.0765817 -0.168041 0.316417 -0.129461 -0.0500422 0.148256 -0.113457 -4.17352 -2.16676 0.0750688 0.01 
40 1 4 -0.0969016 0.143091 0.0849138 -0.186342 0.351124 -0.145095 0 0 0 -4.17352 -2.16676 0.0750688 0.01 
41 1 5 0.0792369 -0.134931 0.00979179 -0.00471828 -0.0100329 -0.0223852 -0.963692 0.325238 3.05604 0.499294 -0.208584 0.892442 0.01 
42 1 5 0.0799491 -0.133571 0.0186599 -0.00778194 -0.0138251 -0.0215576 0 0 0 0.499294 -0.208584 0.892442 0.01 
43 1 5 0.0806612 -0.13221 0.0275279 -0.0108456 -0.0176173 -0.0207299 1.58075 0.133932 0.16332 0.499294 -0.208584 0.892442 0.01 
44 1 5 0.0813734 -0.13085 0.036396 -0.0139093 -0.0214095 -0.0199022 0 0 0 0.499294 -0.208584 0.892442 0.01 
45 1 5 0.0820855 -0.12949 0.0452641 -0.0169729 -0.0252018 -0.0190745 0 0 0 0.499294 -0.208584 0.892442 0.01 
46 1 5 0.0827976 -0.12813 0.0541321 -0.0200366 -0.028994 -0.0182468 0 0 0 0.499294 -0.208584 0.892442 0.01 
47 1 5 0.0835098 -0.126769 0.0630002 -0.0231002 -0.0327862 -0.0174191 0 0 0 0.499294 -0.208584 0.892442 0.01 
48 1 5 0.0842219 -0.125409 0.0718683 -0.0261639 -0.0365784 -0.0165914 0 0 0 0.499294 -0.208584 0.892442 0.01 
49 1 5 0.0849341 -0.124049 0.0807363 -0.0292276 -0.0403707 -0.0157637 0 0 0 0.499294 -0.208584 0.892442 0.01 
50 1 5 0.0856462 -0.122689 0.0896044 -0.0322912 -0.0441629 -0.014936 -0.821564 -0.586204 -1.77018 0.499294 -0.208584 0.892442 0.01 
51 1 6 0.180169 -0.0346892 0.0103515 0.137156 0.118287 0.106275 -0.112594 0.0462464 0.0190436 11.5473 0.321424 -9.80035 0.01 
52 1 6 0.175236 -0.0384717 0.0168595 0.102178 0.0914872 0.0641831 0 0 0 11.5473 0.321424 -9.80035 0.01 
53 1 6 0.170302 -0.0422542 0.0233674 0.0671998 0.0646877 0.0220912 0 0 0 11.5473 0.321424 -9.80035 0.01 
54 1 6 0.165369 -0.0460367 0.0298754 0.0322217 0.0378883 -0.0200007 0 0 0 11.5473 0.321424 -9.80035 0.01 
55 1 6 0.160435 -0.0498192 0.0363833 -0.00275644 0.0110888 -0.0620926 0.401865 -0.0577648 0.942387 11.5473 0.321424 -9.80035 0.01 
56 1 6 0.155502 -0.0536017 0.0428913 -0.0377345 -0.0157107 -0.104185 0 0 0 11.5473 0.321424 -9.80035 0.01 
57 1 6 0.150569 -0.0573842 0.0493993 -0.0727126 -0.0425101 -0.146276 -0.290725 0.274471 -0.31699 11.5473 0.321424 -9.80035 0.01 
58 1 6 0.145635 -0.0611667 0.0559072 -0.107691 -0.0693096 -0.188368 0 0 0 11.5473 0.321424 -9.80035 0.01 
59 1 6 0.140702 -0.0649492 0.0624152 -0.142669 -0.0961091 -0.23046 0 0 0 11.5473 0.321424 -9.80035 0.01 
60 1 6 0.135768 -0.0687317 0.0689231 -0.177647 -0.122909 -0.272552 -0.200253 -0.438792 -0.730537 11.5473 0.321424 -9.80035 0.01 
61 1 7 -0.0385133 0.219053 0.00992053 0.0173638 0.0542922 0.00270856 0.04146 0.0328746 0.542462 -5.46204 1.6785 -1.57188 0.01 
62 1 7 -0.0376373 0.22029 0.0187919 0.0341992 0.101371 -0.00551975 0 0 0 -5.46204 1.6785 -1.57188 0.01 
63 1 7 -0.0367612 0.221528 0.0276633 0.0510347 0.14845 -0.0137481 0 0 0 -5.46204 1.6785 -1.57188 0.01 
64 1 7 -0.0358852 0.222765 0.0365347 0.0678702 0.195529 -0.0219764 0 0 0 -5.46204 1.6785 -1.57188 0.01 
65 1 7 -0.0350092 0.224002 0.0454061 0.0847057 0.242608 -0.0302047 0 0 0 -5.46204 1.6785 -1.57188 0.01 
66 1 7 -0.0341331 0.225239 0.0542776 0.101541 0.289687 -0.038433 0 0 0 -5.46204 1.6785 -1.57188 0.01 
67 1 7 -0.0332571 0.226477 0.063149 0.118377 0.336766 -0.0466613 -0.062897 0.0310272 -0.0208084 -5.46204 1.6785 -1.57188 0.01 
68 1 7 -0.0323811 0.227714 0.0720204 0.135212 0.383845 -0.0548896 0.0161316 -0.0132534 -0.0145643 -5.46204 1.6785 -1.57188 0.01 
69 1 7 -0.0315051 0.228951 0.0808918 0.152048 0.430924 -0.0631179 -0.0730795 -0.0605081 -0.0150301 -5.46204 1.6785 -1.57188 0.01 
70 1 7 -0.030629 0.230188 0.0897632 0.168883 0.478003 -0.0713462 0 0 0 -5.46204 1.6785 -1.57188 0.01 
71 1 8 0.133326 -0.144911 0.105933 0.0812576 -0.158017 -0.0387371 0.0606909 -0.0199233 0.277297 -1.26972 5.17213 -1.41532 0.01 
72 1 8 0.13683 -0.144508 0.114213 0.124654 -0.152463 -0.057373 0 0 0 -1.26972 5.17213 -1.41532 0.01 
73 1 8 0.140334 -0.144104 0.122493 0.16805 -0.146909 -0.0760089 0 0 0 -1.26972 5.17213 -1.41532 0.01 
74 1 8 0.143838 -0.1437 0.130774 0.211447 -0.141355 -0.0946448 0 0 0 -1.26972 5.17213 -1.41532 0.01 
75 1 8 0.147342 -0.143297 0.139054 0.254843 -0.135801 -0.113281 0 0 0 -1.26972 5.17213 -1.41532 0.01 
76 1 8 0.150846 -0.142893 0.147334 0.29824 -0.130247 -0.131917 0 0 0 -1.26972 5.17213 -1.41532 0.01 
77 1 8 0.15435 -0.14249 0.155614 0.341636 -0.124693 -0.150553 0 0 0 -1.26972 5.17213 -1.41532 0.01 
78 1 8 0.157854 -0.142086 0.163894 0.385033 -0.119139 -0.169188 0 0 0 -1.26972 5.17213 -1.41532 0.01 
79 1 8 0.161358 -0.141683 0.172174 0.428429 -0.113585 -0.187824 0 0 0 -1.26972 5.17213 -1.41532 0.01 
80 1 8 0.164862 -0.141279 0.180454 0.471826 -0.108031 -0.20646 0 0 0 -1.26972 5.17213 -1.41532 0.01 
81 1 9 -0.129037 0.0413653 0.0868376 -0.119069 0.153743 -0.408668 0 0 0 8.60299 8.99891 5.9513 0.01 
82 1 9 -0.122383 0.0394116 0.0925739 -0.0558207 0.143995 -0.485357 0 0 0 8.60299 8.99891 5.9513 0.01 
83 1 9 -0.115729 0.0374578 0.0983102 0.00742715 0.134247 -0.562045 0 0 0 8.60299 8.99891 5.9513 0.01 
84 1 9 -0.109075 0.035504 0.104046 0.070675 0.124499 -0.638734 0 0 0 8.60299 8.99891 5.9513 0.01 
85 1 9 -0.10242 0.0335502 0.109783 0.133923 0.11475 -0.715423 0 0 0 8.60299 8.99891 5.9513 0.01 
86 1 9 -0.0957663 0.0315964 0.115519 0.197171 0.105002 -0.792112 0 0 0 8.60299 8.99891 5.9513 0.01 
87 1 9 -0.0891121 0.0296426 0.121255 0.260418 0.0952541 -0.8688 0 0 0 8.60299 8.99891 5.9513 0.01 
88 1 9 -0.082458 0.0276888 0.126992 0.323666 0.0855059 -0.945489 0 0 0 8.60299 8.99891 5.9513 0.01 
89 1 9 -0.0758038 0.025735 0.132728 0.386914 0.0757577 -1.02218 0 0 0 8.60299 8.99891 5.9513 0.01 
90 1 9 -0.0691497 0.0237812 0.138464 0.450162 0.0660096 -1.09887 0 0 0 8.60299 8.99891 5.9513 0.01 
91 1 10 0.0597256 0.207808 0.108849 -0.0126925 0.131063 0.0405709 0 0 0 -10.8017 0.205168 17.2044 0.01 
92 1 10 0.0563425 0.209782 0.116952 -0.0449904 0.160386 0.019943 0 0 0 -10.8017 0.205168 17.2044 0.01 
93 1 10 0.0529595 0.211755 0.125055 -0.0772883 0.189708 -0.000684799 0 0 0 -10.8017 0.205168 17.2044 0.01 
94 1 10 0.0495764 0.213729 0.133158 -0.109586 0.219031 -0.0213126 0 0 0 -10.8017 0.205168 17.2044 0.01 
95 1 10 0.0461933 0.215703 0.141261 -0.141884 0.248353 -0.0419405 -0.00773754 0.184226 -0.12827 -10.8017 0.205168 17.2044 0.01 
96 1 10 0.0428102 0.217677 0.149364 -0.174182 0.277676 -0.0625683 0 0 0 -10.8017 0.205168 17.2044 0.01 
97 1 10 0.0394272 0.219651 0.157467 -0.20648 0.306998 -0.0831961 0 0 0 -10.8017 0.205168 17.2044 0.01 
98 1 10 0.0360441 0.221625 0.16557 -0.238778 0.336321 -0.103824 0 0 0 -10.8017 0.205168 17.2044 0.01 
99 1 10 0.032661 0.223599 0.173673 -0.271076 0.365643 -0.124452 0 0 0 -10.8017 0.205168 17.2044 0.01 
100 1 10 0.0292779 0.225573 0.181776 -0.303374 0.394966 -0.14508 0 0 0 -10.8017 0.205168 17.2044 0.01 
101 1 11 -0.234485 -0.0887072 0.025004 -0.334624 0.0850929 -0.538291 0 0 0 4.66078 -1.44107 1.24854 0.01 
102 1 11 -0.232445 -0.0910645 0.033447 -0.343847 0.0482886 -0.546339 0 0 0 4.66078 -1.44107 1.24854 0.01 
103 1 11 -0.230406 -0.0934218 0.0418899 -0.353071 0.0114842 -0.554386 -0.192544 -1.5151 0.561785 4.66078 -1.44107 1.24854 0.01 
104 1 11 -0.228366 -0.0957791 0.0503329 -0.362295 -0.0253201 -0.562434 0 0 0 4.66078 -1.44107 1.24854 0.01 
105 1 11 -0.226326 -0.0981364 0.0587758 -0.371519 -0.0621244 -0.570482 1.17045 1.09686 -0.539411 4.66078 -1.44107 1.24854 0.01 
106 1 11 -0.224287 -0.100494 0.0672188 -0.380742 -0.0989287 -0.578529 0 0 0 4.66078 -1.44107 1.24854 0.01 
107 1 11 -0.222247 -0.102851 0.0756617 -0.389966 -0.135733 -0.586577 0 0 0 4.66078 -1.44107 1.24854 0.01 
108 1 11 -0.220208 -0.105208 0.0841047 -0.39919 -0.172537 -0.594625 0 0 0 4.66078 -1.44107 1.24854 0.01 
109 1 11 -0.218168 -0.107565 0.0925476 -0.408413 -0.209342 -0.602672 -1.55374 0.852395 2.63495 4.66078 -1.44107 1.24854 0.01 
110 1 11 -0.216129 -0.109923 0.100991 -0.417637 -0.246146 -0.61072 0 0 0 4.66078 -1.44107 1.24854 0.01 
111 1 12 0.106818 0.0507156 0.0740742 0.154215 -0.140672 -0.607882 0 0 0 -1.38309 -1.40302 0.300979 0.01 
112 1 12 0.108116 0.0534383 0.0825537 0.141498 -0.128554 -0.609826 0 0 0 -1.38309 -1.40302 0.300979 0.01 
113 1 12 0.109414 0.0561611 0.0910331 0.128782 -0.116435 -0.611771 0 0 0 -1.38309 -1.40302 0.300979 0.01 
114 1 12 0.110712 0.0588838 0.0995126 0.116065 -0.104317 -0.613715 0 0 0 -1.38309 -1.40302 0.300979 0.01 
115 1 12 0.112011 0.0616066 0.107992 0.103349 -0.0921981 -0.615659 0 0 0 -1.38309 -1.40302 0.300979 0.01 
116 1 12 0.113309 0.0643294 0.116472 0.0906327 -0.0800794 -0.617604 -0.670813 0.14668 0.352828 -1.38309 -1.40302 0.300979 0.01 
117 1 12 0.114607 0.0670521 0.124951 0.0779163 -0.0679608 -0.619548 0 0 0 -1.38309 -1.40302 0.300979 0.01 
118 1 12 0.115905 0.0697749 0.13343 0.0651999 -0.0558422 -0.621493 0 0 0 -1.38309 -1.40302 0.300979 0.01 
119 1 12 0.117203 0.0724976 0.14191 0.0524835 -0.0437236 -0.623437 0 0 0 -1.38309 -1.40302 0.300979 0.01 
120 1 12 0.118502 0.0752204 0.150389 0.0397672 -0.031605 -0.625382 0 0 0 -1.38309 -1.40302 0.300979 0.01 
121 1 13 -0.00631298 0.247173 0.0876782 0.144755 0.318856 -0.277598 0 0 0 1.95471 -11.0107 4.53305 0.01 
122 1 13 -0.0106516 0.242435 0.0939814 0.0968288 0.286868 -0.33463 -0.675094 -0.332066 0.786414 1.95471 -11.0107 4.53305 0.01 
123 1 13 -0.0149901 0.237698 0.100285 0.0489023 0.25488 -0.391661 0.181603 0.181832 0.23647 1.95471 -11.0107 4.53305 0.01 
124 1 13 -0.0193287 0.23296 0.106588 0.000975794 0.222893 -0.448693 0 0 0 1.95471 -11.0107 4.53305 0.01 
125 1 13 -0.0236673 0.228222 0.112891 -0.0469507 0.190905 -0.505725 0 0 0 1.95471 -11.0107 4.53305 0.01 
126 1 13 -0.0280058 0.223484 0.119194 -0.0948773 0.158917 -0.562756 0 0 0 1.95471 -11.0107 4.53305 0.01 
127 1 13 -0.0323444 0.218747 0.125498 -0.142804 0.126929 -0.619788 0 0 0 1.95471 -11.0107 4.53305 0.01 
128 1 13 -0.036683 0.214009 0.131801 -0.19073 0.0949407 -0.676819 0 0 0 1.95471 -11.0107 4.53305 0.01 
129 1 13 -0.0410215 0.209271 0.138104 -0.238657 0.0629528 -0.733851 0 0 0 1.95471 -11.0107 4.53305 0.01 
130 1 13 -0.0453601 0.204533 0.144407 -0.286583 0.0309648 -0.790882 0 0 0 1.95471 -11.0107 4.53305 0.01 
131 1 14 -0.0472399 0.124614 0.00989301 -0.0748355 0.0468591 0.0249776 0.170405 0.133477 0.432915 -7.96915 -2.82218 -12.8008 0.01 
132 1 14 -0.0450108 0.127855 0.017988 -0.0561993 0.0828352 0.00544394 -0.374191 -0.322229 0.397254 -7.96915 -2.82218 -12.8008 0.01 
133 1 14 -0.0427817 0.131096 0.0260831 -0.0375631 0.118811 -0.0140897 0 0 0 -7.96915 -2.82218 -12.8008 0.01 
134 1 14 -0.0405526 0.134336 0.0341781 -0.0189269 0.154787 -0.0336233 0 0 0 -7.96915 -2.82218 -12.8008 0.01 
135 1 14 -0.0383234 0.137577 0.0422732 -0.000290755 0.190764 -0.0531569 0 0 0 -7.96915 -2.82218 -12.8008 0.01 
136 1 14 -0.0360943 0.140817 0.0503682 0.0183454 0.22674 -0.0726905 0 0 0 -7.96915 -2.82218 -12.8008 0.01 
137 1 14 -0.0338652 0.144058 0.0584633 0.0369816 0.262716 -0.0922241 0 0 0 -7.96915 -2.82218 -12.8008 0.01 
138 1 14 -0.0316361 0.147298 0.0665583 0.0556178 0.298692 -0.111758 0 0 0 -7.96915 -2.82218 -12.8008 0.01 
139 1 14 -0.029407 0.150539 0.0746533 0.074254 0.334668 -0.131291 0.0124067 -0.0744984 0.0183537 -7.96915 -2.82218 -12.8008 0.01 
140 1 14 -0.0271778 0.15378 0.0827484 0.0928901 0.370644 -0.150825 -0.248942 -0.764801 -1.07267 -7.96915 -2.82218 -12.8008 0.01 
141 1 15 -0.00565351 -0.0634526 0.00989944 -7.88229e-05 0.0477061 0.013775 -0.477779 -0.352474 0.242896 -0.283374 -4.52316 9.38552 0.01 
142 1 15 -0.00878557 -0.0647106 0.0182426 -0.0260091 0.0206743 -3.53019e-05 0 0 0 -0.283374 -4.52316 9.38552 0.01 
143 1 15 -0.0119176 -0.0659686 0.0265857 -0.0519394 -0.00635757 -0.0138457 0 0 0 -0.283374 -4.52316 9.38552 0.01 
144 1 15 -0.0150497 -0.0672266 0.0349288 -0.0778697 -0.0333894 -0.027656 0 0 0 -0.283374 -4.52316 9.38552 0.01 
145 1 15 -0.0181818 -0.0684846 0.0432719 -0.1038 -0.0604213 -0.0414663 0.910756 1.25187 1.10427 -0.283374 -4.52316 9.38552 0.01 
146 1 15 -0.0213138 -0.0697426 0.051615 -0.12973 -0.0874531 -0.0552767 0.48687 0.596818 0.960639 -0.283374 -4.52316 9.38552 0.01 
147 1 15 -0.0244459 -0.0710006 0.0599581 -0.15566 -0.114485 -0.069087 0 0 0 -0.283374 -4.52316 9.38552 0.01 
148 1 15 -0.027578 -0.0722586 0.0683013 -0.181591 -0.141517 -0.0828974 0 0 0 -0.283374 -4.52316 9.38552 0.01 
149 1 15 -0.03071 -0.0735166 0.0766444 -0.207521 -0.168549 -0.0967077 -0.668072 -1.25551 -1.35188 -0.283374 -4.52316 9.38552 0.01 
150 1 15 -0.0338421 -0.0747746 0.0849875 -0.233451 -0.195581 -0.110518 0 0 0 -0.283374 -4.52316 9.38552 0.01 
151 1 16 -0.0379776 0.178381 0.0099116 -0.00516918 0.0423865 -0.00236507 0.170059 0.0412369 0.642876 -4.19927 0.129587 -1.20559 0.01 
152 1 16 -0.0367373 0.181811 0.0181396 3.1708e-05 0.0754427 -0.0169275 -0.0245207 0.0462901 -0.0195553 -4.19927 0.129587 -1.20559 0.01 
153 1 16 -0.035497 0.18524 0.0263676 0.00523259 0.108499 -0.0314899 -0.0257055 0.0492047 -0.01953 -4.19927 0.129587 -1.20559 0.01 
154 1 16 -0.0342566 0.18867 0.0345955 0.0104335 0.141555 -0.0460523 -0.0212459 0.0408515 -0.0153339 -4.19927 0.129587 -1.20559 0.01 
155 1 16 -0.0330163 0.192099 0.0428235 0.0156344 0.174611 -0.0606147 -0.012204 0.0234117 -0.00835548 -4.19927 0.129587 -1.20559 0.01 
156 1 16 -0.031776 0.195529 0.0510515 0.0208352 0.207667 -0.0751771 0 0 0 -4.19927 0.129587 -1.20559 0.01 
157 1 16 -0.0305357 0.198958 0.0592795 0.0260361 0.240723 -0.0897395 0 0 0 -4.19927 0.129587 -1.20559 0.01 
158 1 16 -0.0292953 0.202388 0.0675075 0.031237 0.27378 -0.104302 -0.159152 0.220247 0.378734 -4.19927 0.129587 -1.20559 0.01 
159 1 16 -0.028055 0.205818 0.0757354 0.0364379 0.306836 -0.118864 -0.155158 -0.0806733 0.172155 -4.19927 0.129587 -1.20559 0.01 
160 1 16 -0.0268147 0.209247 0.0839634 0.0416388 0.339892 -0.133427 0.908246 0.752056 0.156764 -4.19927 0.129587 -1.20559 0.01 
161 1 17 0.0740922 0.0912854 0.00990454 0.0176227 -0.014134 0.00840571 0.0698183 -0.103016 0.619185 1.58857 1.41632 7.07901 0.01 
162 1 17 0.0762177 0.089548 0.0184756 0.042061 -0.0127035 0.00263541 0 0 0 1.58857 1.41632 7.07901 0.01 
163 1 17 0.0783432 0.0878106 0.0270468 0.0664994 -0.0112731 -0.00313489 0 0 0 1.58857 1.41632 7.07901 0.01 
164 1 17 0.0804686 0.0860732 0.0356179 0.0909378 -0.0098427 -0.00890519 0 0 0 1.58857 1.41632 7.07901 0.01 
165 1 17 0.0825941 0.0843358 0.044189 0.115376 -0.00841228 -0.0146755 0 0 0 1.58857 1.41632 7.07901 0.01 
166 1 17 0.0847196 0.0825984 0.0527601 0.139815 -0.00698186 -0.0204458 0 0 0 1.58857 1.41632 7.07901 0.01 
167 1 17 0.0868451 0.0808611 0.0613312 0.164253 -0.00555144 -0.0262161 0 0 0 1.58857 1.41632 7.07901 0.01 
168 1 17 0.0889705 0.0791237 0.0699023 0.188691 -0.00412102 -0.0319864 0.10881 -0.1407 0.113242 1.58857 1.41632 7.07901 0.01 
169 1 17 0.091096 0.0773863 0.0784734 0.21313 -0.0026906 -0.0377567 -0.0698807 0.0192596 0.00961377 1.58857 1.41632 7.07901 0.01 
170 1 17 0.0932215 0.0756489 0.0870445 0.237568 -0.00126018 -0.043527 -0.0438937 -0.021063 0.00609666 1.58857 1.41632 7.07901 0.01 
171 1 18 -0.292871 -0.0446435 0.0580436 -0.497853 0.00205904 -0.389787 0 0 0 -5.18984 -3.35857 -8.30893 0.01 
172 1 18 -0.288528 -0.0428177 0.0657123 -0.508439 0.00577715 -0.384678 0 0 0 -5.18984 -3.35857 -8.30893 0.01 
173 1 18 -0.284186 -0.040992 0.073381 -0.519025 0.00949525 -0.379569 0 0 0 -5.18984 -3.35857 -8.30893 0.01 
174 1 18 -0.279843 -0.0391663 0.0810498 -0.529611 0.0132134 -0.374459 0 0 0 -5.18984 -3.35857 -8.30893 0.01 
175 1 18 -0.275501 -0.0373406 0.0887185 -0.540198 0.0169315 -0.36935 0 0 0 -5.18984 -3.35857 -8.30893 0.01 
176 1 18 -0.271158 -0.0355149 0.0963872 -0.550784 0.0206496 -0.364241 0 0 0 -5.18984 -3.35857 -8.30893 0.01 
177 1 18 -0.266816 -0.0336891 0.104056 -0.56137 0.0243677 -0.359131 0 0 0 -5.18984 -3.35857 -8.30893 0.01 
178 1 18 -0.262473 -0.0318634 0.111725 -0.571956 0.0280858 -0.354022 0 0 0 -5.18984 -3.35857 -8.30893 0.01 
179 1 18 -0.258131 -0.0300377 0.119393 -0.582543 0.0318039 -0.348913 0 0 0 -5.18984 -3.35857 -8.30893 0.01 
180 1 18 -0.253788 -0.028212 0.127062 -0.593129 0.035522 -0.343803 0 0 0 -5.18984 -3.35857 -8.30893 0.01 
181 1 19 0.0186822 0.188868 0.102318 0.0306799 0.301034 0.0192254 -0.079822 -0.106839 0.220887 10.4243 3.33506 -1.23016 0.01 
182 1 19 0.0173417 0.183924 0.109718 0.0492793 0.225539 -0.0278356 0 0 0 10.4243 3.33506 -1.23016 0.01 
183 1 19 0.0160012 0.178981 0.117118 0.0678786 0.150045 -0.0748967 0 0 0 10.4243 3.33506 -1.23016 0.01 
184 1 19 0.0146606 0.174037 0.124519 0.086478 0.0745512 -0.121958 0 0 0 10.4243 3.33506 -1.23016 0.01 
185 1 19 0.0133201 0.169094 0.131919 0.105077 -0.000942973 -0.169019 0 0 0 10.4243 3.33506 -1.23016 0.01 
186 1 19 0.0119796 0.16415 0.139319 0.123677 -0.0764371 -0.21608 0 0 0 10.4243 3.33506 -1.23016 0.01 
187 1 19 0.0106391 0.159207 0.14672 0.142276 -0.151931 -0.263141 0 0 0 10.4243 3.33506 -1.23016 0.01 
188 1 19 0.00929853 0.154264 0.15412 0.160875 -0.227425 -0.310202 -0.0260076 0.0158792 -0.00673775 10.4243 3.33506 -1.23016 0.01 
189 1 19 0.007958 0.14932 0.161521 0.179475 -0.30292 -0.357263 0 0 0 10.4243 3.33506 -1.23016 0.01 
190 1 19 0.00661747 0.144377 0.168921 0.198074 -0.378414 -0.404324 0 0 0 10.4243 3.33506 -1.23016 0.01 
191 1 20 -0.00708743 0.190515 0.00997541 -0.0916902 0.00156956 0.00943172 0.0130561 0.00269012 -0.0266608 -3.05255 4.93248 4.01629 0.01 
192 1 20 -0.00539446 0.194601 0.0178138 -0.069437 0.0322961 -0.0113908 0 0 0 -3.05255 4.93248 4.01629 0.01 
193 1 20 -0.00370149 0.198687 0.0256522 -0.0471839 0.0630227 -0.0322133 0.0268354 0.0192442 -0.00327533 -3.05255 4.93248 4.01629 0.01 
194 1 20 -0.00200852 0.202772 0.0334906 -0.0249307 0.0937493 -0.0530358 -0.037008 0.00666186 0.0293442 -3.05255 4.93248 4.01629 0.01 
195 1 20 -0.000315548 0.206858 0.041329 -0.00267754 0.124476 -0.0738583 -0.102466 0.0163596 0.0829302 -3.05255 4.93248 4.01629 0.01 
196 1 20 0.00137742 0.210944 0.0491674 0.0195756 0.155202 -0.0946808 -0.137156 0.0191217 0.113234 -3.05255 4.93248 4.01629 0.01 
197 1 20 0.00307039 0.21503 0.0570058 0.0418288 0.185929 -0.115503 0.161684 0.176896 0.10105 -3.05255 4.93248 4.01629 0.01 
198 1 20 0.00476336 0.219115 0.0648442 0.0640819 0.216656 -0.136326 0.253766 0.170299 0.0989932 -3.05255 4.93248 4.01629 0.01 
199 1 20 0.00645633 0.223201 0.0726826 0.0863351 0.247382 -0.157148 -0.0666434 0.0155467 0.0447142 -3.05255 4.93248 4.01629 0.01 
200 1 20 0.0081493 0.227287 0.080521 0.108588 0.278109 -0.177971 -0.00165092 -0.00532215 -0.0217271 -3.05255 4.93248 4.01629 0.01 
201 1 21 0.0182281 0.00635079 0.0099581 0.00653445 -0.0307143 0.0242043 -0.047282 0.0586167 -0.150619 -3.47002 -4.63242 -3.81031 0.01 
202 1 21 0.0169843 0.0104944 0.0178501 -0.014236 0.00141025 0.00406412 -0.109374 -0.40993 0.449377 -3.47002 -4.63242 -3.81031 0.01 
203 1 21 0.0157405 0.014638 0.0257421 -0.0350064 0.0335348 -0.0160761 -0.00567412 0.0520175 0.00205364 -3.47002 -4.63242 -3.81031 0.01 
204 1 21 0.0144968 0.0187817 0.033634 -0.0557768 0.0656593 -0.0362163 0 0 0 -3.47002 -4.63242 -3.81031 0.01 
205 1 21 0.013253 0.0229253 0.041526 -0.0765472 0.0977839 -0.0563564 0.276977 0.336341 -0.43332 -3.47002 -4.63242 -3.81031 0.01 
206 1 21 0.0120092 0.0270689 0.049418 -0.0973176 0.129908 -0.0764966 0 0 0 -3.47002 -4.63242 -3.81031 0.01 
207 1 21 0.0107654 0.0312126 0.05731 -0.118088 0.162033 -0.0966368 0 0 0 -3.47002 -4.63242 -3.81031 0.01 
208 1 21 0.00952164 0.0353562 0.065202 -0.138858 0.194158 -0.116777 0.143541 0.14692 -0.0711379 -3.47002 -4.63242 -3.81031 0.01 
209 1 21 0.00827786 0.0394998 0.0730939 -0.159629 0.226282 -0.136917 0 0 0 -3.47002 -4.63242 -3.81031 0.01 
210 1 21 0.00703408 0.0436434 0.0809859 -0.180399 0.258407 -0.157057 -0.139522 -0.121061 -0.0316596 -3.47002 -4.63242 -3.81031 0.01 
211 1 22 0.0121985 0.239709 0.0955794 0.00571145 0.348928 -0.172881 0.00165092 0.00532215 0.0217271 -0.822235 -7.75779 8.39292 0.01 
212 1 22 0.00991268 0.233467 0.101646 0.0110351 0.334732 -0.185481 0 0 0 -0.822235 -7.75779 8.39292 0.01 
213 1 22 0.0076269 0.227225 0.107714 0.0163587 0.320536 -0.198081 0 0 0 -0.822235 -7.75779 8.39292 0.01 
214 1 22 0.00534113 0.220983 0.113781 0.0216824 0.30634 -0.210681 0 0 0 -0.822235 -7.75779 8.39292 0.01 
215 1 22 0.00305535 0.21474 0.119848 0.027006 0.292145 -0.223281 0.0378861 0.405295 0.113902 -0.822235 -7.75779 8.39292 0.01 
216 1 22 0.000769578 0.208498 0.125915 0.0323297 0.277949 -0.235881 0 0 0 -0.822235 -7.75779 8.39292 0.01 
217 1 22 -0.0015162 0.202256 0.131982 0.0376533 0.263753 -0.248481 0 0 0 -0.822235 -7.75779 8.39292 0.01 
218 1 22 -0.00380197 0.196014 0.138049 0.042977 0.249557 -0.261081 0 0 0 -0.822235 -7.75779 8.39292 0.01 
219 1 22 -0.00608775 0.189771 0.144116 0.0483006 0.235362 -0.273681 0 0 0 -0.822235 -7.75779 8.39292 0.01 
220 1 22 -0.00837352 0.183529 0.150183 0.0536243 0.221166 -0.286281 0.0104007 -0.155579 0.00771581 -0.822235 -7.75779 8.39292 0.01 
221 1 23 0.225959 0.0508054 0.107714 0.353997 -0.0733196 -0.00890502 -0.479303 0.233188 -0.61635 -7.94792 -4.47301 4.75461 0.01 
222 1 23 0.223231 0.0549712 0.115211 0.300656 -0.026705 -0.0542169 0.777772 -0.515141 1.03014 -7.94792 -4.47301 4.75461 0.01 
223 1 23 0.220503 0.059137 0.122708 0.247315 0.0199095 -0.0995287 0 0 0 -7.94792 -4.47301 4.75461 0.01 
224 1 23 0.217775 0.0633029 0.130205 0.193974 0.0665241 -0.144841 0 0 0 -7.94792 -4.47301 4.75461 0.01 
225 1 23 0.215047 0.0674687 0.137701 0.140634 0.113139 -0.190152 0 0 0 -7.94792 -4.47301 4.75461 0.01 
226 1 23 0.212319 0.0716345 0.145198 0.087293 0.159753 -0.235464 0 0 0 -7.94792 -4.47301 4.75461 0.01 
227 1 23 0.209591 0.0758003 0.152695 0.0339523 0.206368 -0.280776 0 0 0 -7.94792 -4.47301 4.75461 0.01 
228 1 23 0.206863 0.0799661 0.160192 -0.0193884 0.252982 -0.326088 0 0 0 -7.94792 -4.47301 4.75461 0.01 
229 1 23 0.204135 0.0841319 0.167689 -0.0727291 0.299597 -0.3714 0 0 0 -7.94792 -4.47301 4.75461 0.01 
230 1 23 0.201407 0.0882977 0.175186 -0.12607 0.346212 -0.416712 0 0 0 -7.94792 -4.47301 4.75461 0.01 
231 1 24 0.160602 0.0216304 0.00993342 0.0684177 0.0281208 -0.000976399 0.157337 -0.0437578 0.47106 -2.7479 6.97016 -6.35741 0.01 
232 1 24 0.165583 0.0202003 0.0172917 0.110614 0.016674 -0.0317654 0 0 0 -2.7479 6.97016 -6.35741 0.01 
233 1 24 0.170564 0.0187702 0.0246499 0.152811 0.00522713 -0.0625544 0 0 0 -2.7479 6.97016 -6.35741 0.01 
234 1 24 0.175545 0.0173402 0.0320082 0.195008 -0.00621969 -0.0933434 0 0 0 -2.7479 6.97016 -6.35741 0.01 
235 1 24 0.180527 0.0159101 0.0393665 0.237204 -0.0176665 -0.124132 0 0 0 -2.7479 6.97016 -6.35741 0.01 
236 1 24 0.185508 0.01448 0.0467247 0.279401 -0.0291133 -0.154921 0 0 0 -2.7479 6.97016 -6.35741 0.01 
237 1 24 0.190489 0.0130499 0.054083 0.321598 -0.0405602 -0.18571 0 0 0 -2.7479 6.97016 -6.35741 0.01 
238 1 24 0.19547 0.0116199 0.0614412 0.363794 -0.052007 -0.216499 0 0 0 -2.7479 6.97016 -6.35741 0.01 
239 1 24 0.200451 0.0101898 0.0687995 0.405991 -0.0634538 -0.247288 0 0 0 -2.7479 6.97016 -6.35741 0.01 
240 1 24 0.205432 0.00875971 0.0761578 0.448188 -0.0749006 -0.278077 0 0 0 -2.7479 6.97016 -6.35741 0.01 
241 1 25 0.138594 -0.191026 0.107405 0.124741 -0.33821 -0.0416661 0.03987 0.00699065 -0.256021 -10.2747 -0.273337 2.59037 0.01 
242 1 25 0.138849 -0.186569 0.115219 0.111058 -0.257259 -0.0873971 0 0 0 -10.2747 -0.273337 2.59037 0.01 
243 1 25 0.139104 -0.182111 0.123034 0.0973751 -0.176308 -0.133128 0 0 0 -10.2747 -0.273337 2.59037 0.01 
244 1 25 0.139359 -0.177654 0.130848 0.0836922 -0.0953564 -0.178859 0 0 0 -10.2747 -0.273337 2.59037 0.01 
245 1 25 0.139614 -0.173196 0.138662 0.0700094 -0.0144052 -0.22459 0 0 0 -10.2747 -0.273337 2.59037 0.01 
246 1 25 0.139869 -0.168738 0.146477 0.0563265 0.0665459 -0.270321 0 0 0 -10.2747 -0.273337 2.59037 0.01 
247 1 25 0.140125 -0.164281 0.154291 0.0426437 0.147497 -0.316052 0 0 0 -10.2747 -0.273337 2.59037 0.01 
248 1 25 0.14038 -0.159823 0.162106 0.0289608 0.228448 -0.361783 0 0 0 -10.2747 -0.273337 2.59037 0.01 
249 1 25 0.140635 -0.155365 0.16992 0.015278 0.309399 -0.407514 0 0 0 -10.2747 -0.273337 2.59037 0.01 
250 1 25 0.14089 -0.150908 0.177734 0.00159511 0.39035 -0.453245 0 0 0 -10.2747 -0.273337 2.59037 0.01 
251 1 26 -0.0061446 -0.174118 0.00988766 -0.000576185 -0.0412519 -0.00151978 -0.46569 0.176763 1.02518 4.10288 -0.0955834 0.437229 0.01 
252 1 26 -0.00483985 -0.177692 0.0180435 0.000207262 -0.0741441 -0.0160621 0 0 0 4.10288 -0.0955834 0.437229 0.01 
253 1 26 -0.00353511 -0.181267 0.0261994 0.000990709 -0.107036 -0.0306045 0 0 0 4.10288 -0.0955834 0.437229 0.01 
254 1 26 -0.00223036 -0.184842 0.0343553 0.00177416 -0.139928 -0.0451468 0 0 0 4.10288 -0.0955834 0.437229 0.01 
255 1 26 -0.000925613 -0.188417 0.0425112 0.0025576 -0.17282 -0.0596892 0.626614 -0.124926 -0.198817 4.10288 -0.0955834 0.437229 0.01 
256 1 26 0.000379133 -0.191992 0.050667 0.00334105 -0.205713 -0.0742316 0.165331 -0.437058 -0.548627 4.10288 -0.0955834 0.437229 0.01 
257 1 26 0.00168388 -0.195566 0.0588229 0.0041245 -0.238605 -0.0887739 0 0 0 4.10288 -0.0955834 0.437229 0.01 
258 1 26 0.00298863 -0.199141 0.0669788 0.00490795 -0.271497 -0.103316 0 0 0 4.10288 -0.0955834 0.437229 0.01 
259 1 26 0.00429337 -0.202716 0.0751347 0.00569139 -0.304389 -0.117859 0 0 0 4.10288 -0.0955834 0.437229 0.01 
260 1 26 0.00559812 -0.206291 0.0832905 0.00647484 -0.337281 -0.132401 -0.715529 0.39323 0.041119 4.10288 -0.0955834 0.437229 0.01 