ITEM: TIMESTEP
14000
ITEM: NUMBER OF ATOMS
6300
ITEM: BOX BOUNDS mm mm mm
-0.3 0.3
-0.3 0.3
0 0.5
ITEM: ATOMS id type mol x y z vx vy vz fx fy fz omegax omegay omegaz radius 
1 1 1 -0.116141 -0.125952 0.102234 0.230592 0.190347 -0.105148 0.0270525 -0.723506 2.55025 2.79874 -3.38721 -0.573903 0.01 
2 1 1 -0.116676 -0.125367 0.111199 0.200561 0.165563 -0.105321 0 0 0 2.79874 -3.38721 -0.573903 0.01 
3 1 1 -0.117211 -0.124781 0.120164 0.170531 0.140779 -0.105493 0 0 0 2.79874 -3.38721 -0.573903 0.01 
4 1 1 -0.117745 -0.124196 0.129129 0.1405 0.115995 -0.105666 0 0 0 2.79874 -3.38721 -0.573903 0.01 
5 1 1 -0.11828 -0.123611 0.138094 0.11047 0.0912112 -0.105839 0 0 0 2.79874 -3.38721 -0.573903 0.01 
6 1 1 -0.118815 -0.123025 0.147059 0.0804396 0.0664273 -0.106011 0 0 0 2.79874 -3.38721 -0.573903 0.01 
7 1 1 -0.119349 -0.12244 0.156024 0.0504092 0.0416434 -0.106184 0 0 0 2.79874 -3.38721 -0.573903 0.01 
8 1 1 -0.119884 -0.121854 0.164989 0.0203788 0.0168595 -0.106357 0 0 0 2.79874 -3.38721 -0.573903 0.01 
9 1 1 -0.120419 -0.121269 0.173954 -0.00965159 -0.00792443 -0.10653 0 0 0 2.79874 -3.38721 -0.573903 0.01 
10 1 1 -0.120953 -0.120684 0.182919 -0.039682 -0.0327083 -0.106702 0.965478 -1.91126 -1.57331 2.79874 -3.38721 -0.573903 0.01 
11 1 2 -0.0348403 -0.107083 0.0591111 0.311566 -0.158364 -0.900141 0 0 0 -4.4787 -2.70971 10.7339 0.01 
12 1 2 -0.0353969 -0.106483 0.0680739 0.280843 -0.124197 -0.904335 0 0 0 -4.4787 -2.70971 10.7339 0.01 
13 1 2 -0.0359535 -0.105883 0.0770366 0.25012 -0.0900304 -0.908528 0 0 0 -4.4787 -2.70971 10.7339 0.01 
14 1 2 -0.0365101 -0.105284 0.0859993 0.219398 -0.0558636 -0.912722 0.281984 -3.33929 5.40429 -4.4787 -2.70971 10.7339 0.01 
15 1 2 -0.0370667 -0.104684 0.0949621 0.188675 -0.0216967 -0.916916 0 0 0 -4.4787 -2.70971 10.7339 0.01 
16 1 2 -0.0376233 -0.104085 0.103925 0.157952 0.0124701 -0.92111 0 0 0 -4.4787 -2.70971 10.7339 0.01 
17 1 2 -0.0381799 -0.103485 0.112888 0.12723 0.0466369 -0.925304 0 0 0 -4.4787 -2.70971 10.7339 0.01 
18 1 2 -0.0387365 -0.102885 0.12185 0.0965068 0.0808037 -0.929497 0.000460873 -0.00719625 0.0034049 -4.4787 -2.70971 10.7339 0.01 
19 1 2 -0.0392932 -0.102286 0.130813 0.0657841 0.114971 -0.933691 0 0 0 -4.4787 -2.70971 10.7339 0.01 
20 1 2 -0.0398498 -0.101686 0.139776 0.0350614 0.149137 -0.937885 0 0 0 -4.4787 -2.70971 10.7339 0.01 
21 1 3 -0.0327716 -0.0262843 0.0375309 0.306174 -0.229708 -1.19127 -0.267426 1.00611 0.433056 5.54565 -0.26222 -15.161 0.01 
22 1 3 -0.0345387 -0.0284264 0.0460918 0.271453 -0.250392 -1.20361 0 0 0 5.54565 -0.26222 -15.161 0.01 
23 1 3 -0.0363058 -0.0305684 0.0546527 0.236733 -0.271077 -1.21595 0 0 0 5.54565 -0.26222 -15.161 0.01 
24 1 3 -0.0380729 -0.0327105 0.0632136 0.202012 -0.291762 -1.2283 0 0 0 5.54565 -0.26222 -15.161 0.01 
25 1 3 -0.03984 -0.0348525 0.0717745 0.167292 -0.312447 -1.24064 0 0 0 5.54565 -0.26222 -15.161 0.01 
26 1 3 -0.041607 -0.0369946 0.0803354 0.132571 -0.333132 -1.25298 0 0 0 5.54565 -0.26222 -15.161 0.01 
27 1 3 -0.0433741 -0.0391367 0.0888963 0.0978505 -0.353817 -1.26532 0 0 0 5.54565 -0.26222 -15.161 0.01 
28 1 3 -0.0451412 -0.0412787 0.0974572 0.06313 -0.374502 -1.27767 0 0 0 5.54565 -0.26222 -15.161 0.01 
29 1 3 -0.0469083 -0.0434208 0.106018 0.0284094 -0.395187 -1.29001 0 0 0 5.54565 -0.26222 -15.161 0.01 
30 1 3 -0.0486754 -0.0455628 0.114579 -0.00631115 -0.415872 -1.30235 0 0 0 5.54565 -0.26222 -15.161 0.01 
31 1 4 -0.0903582 0.107324 0.00963832 0.0274968 0.093135 -0.148051 0.152883 3.63367 9.71261 -3.91307 2.90427 -10.9608 0.01 
32 1 4 -0.0902298 0.107986 0.018613 0.0608133 0.126847 -0.151012 0 0 0 -3.91307 2.90427 -10.9608 0.01 
33 1 4 -0.0901014 0.108647 0.0275878 0.0941298 0.160558 -0.153974 0 0 0 -3.91307 2.90427 -10.9608 0.01 
34 1 4 -0.089973 0.109309 0.0365625 0.127446 0.19427 -0.156936 0 0 0 -3.91307 2.90427 -10.9608 0.01 
35 1 4 -0.0898446 0.10997 0.0455372 0.160763 0.227981 -0.159897 0 0 0 -3.91307 2.90427 -10.9608 0.01 
36 1 4 -0.0897162 0.110632 0.054512 0.194079 0.261693 -0.162859 0 0 0 -3.91307 2.90427 -10.9608 0.01 
37 1 4 -0.0895879 0.111294 0.0634867 0.227396 0.295404 -0.165821 0 0 0 -3.91307 2.90427 -10.9608 0.01 
38 1 4 -0.0894595 0.111955 0.0724614 0.260713 0.329116 -0.168782 0 0 0 -3.91307 2.90427 -10.9608 0.01 
39 1 4 -0.0893311 0.112617 0.0814362 0.294029 0.362828 -0.171744 0 0 0 -3.91307 2.90427 -10.9608 0.01 
40 1 4 -0.0892027 0.113278 0.0904109 0.327346 0.396539 -0.174706 0 0 0 -3.91307 2.90427 -10.9608 0.01 
41 1 5 0.0762077 -0.135545 0.0377668 0.0502226 -0.0954879 -0.818906 0 0 0 -1.74567 -2.42744 -5.165 0.01 
42 1 5 0.077048 -0.134376 0.0466509 0.0346965 -0.0843193 -0.818907 -0.234655 0.141296 0.119306 -1.74567 -2.42744 -5.165 0.01 
43 1 5 0.0778882 -0.133206 0.055535 0.0191703 -0.0731508 -0.818909 0.64752 -0.400023 0.420835 -1.74567 -2.42744 -5.165 0.01 
44 1 5 0.0787285 -0.132037 0.064419 0.00364416 -0.0619822 -0.81891 -0.140809 0.0420851 0.0648011 -1.74567 -2.42744 -5.165 0.01 
45 1 5 0.0795688 -0.130868 0.0733031 -0.011882 -0.0508137 -0.818911 0 0 0 -1.74567 -2.42744 -5.165 0.01 
46 1 5 0.0804091 -0.129698 0.0821872 -0.0274082 -0.0396451 -0.818913 0 0 0 -1.74567 -2.42744 -5.165 0.01 
47 1 5 0.0812494 -0.128529 0.0910712 -0.0429343 -0.0284766 -0.818914 0 0 0 -1.74567 -2.42744 -5.165 0.01 
48 1 5 0.0820897 -0.12736 0.0999553 -0.0584605 -0.017308 -0.818916 0 0 0 -1.74567 -2.42744 -5.165 0.01 
49 1 5 0.08293 -0.12619 0.108839 -0.0739866 -0.00613944 -0.818917 0 0 0 -1.74567 -2.42744 -5.165 0.01 
50 1 5 0.0837703 -0.125021 0.117723 -0.0895128 0.00502912 -0.818919 0 0 0 -1.74567 -2.42744 -5.165 0.01 
51 1 6 0.175659 -0.032994 0.00988092 0.0329762 0.159601 -0.457289 -1.07552 -4.75689 10.2649 7.60967 -2.40088 -19.4719 0.01 
52 1 6 0.17417 -0.0340461 0.0186943 -0.00867019 0.121529 -0.46887 0 0 0 7.60967 -2.40088 -19.4719 0.01 
53 1 6 0.172681 -0.0350982 0.0275077 -0.0503166 0.0834578 -0.480452 0 0 0 7.60967 -2.40088 -19.4719 0.01 
54 1 6 0.171192 -0.0361503 0.0363211 -0.091963 0.0453863 -0.492033 0 0 0 7.60967 -2.40088 -19.4719 0.01 
55 1 6 0.169703 -0.0372024 0.0451344 -0.133609 0.0073148 -0.503614 0 0 0 7.60967 -2.40088 -19.4719 0.01 
56 1 6 0.168214 -0.0382545 0.0539478 -0.175256 -0.0307567 -0.515196 0 0 0 7.60967 -2.40088 -19.4719 0.01 
57 1 6 0.166725 -0.0393066 0.0627612 -0.216902 -0.0688282 -0.526777 0 0 0 7.60967 -2.40088 -19.4719 0.01 
58 1 6 0.165236 -0.0403588 0.0715746 -0.258549 -0.1069 -0.538358 0 0 0 7.60967 -2.40088 -19.4719 0.01 
59 1 6 0.163747 -0.0414109 0.080388 -0.300195 -0.144971 -0.54994 0 0 0 7.60967 -2.40088 -19.4719 0.01 
60 1 6 0.162258 -0.042463 0.0892013 -0.341842 -0.183043 -0.561521 0.297543 -6.33532 -49.5598 7.60967 -2.40088 -19.4719 0.01 
61 1 7 -0.0370345 0.218118 0.00942528 -0.0405981 -0.0182527 0.235513 -0.234984 -0.0923606 4.47532 2.93712 -1.68163 17.9339 0.01 
62 1 7 -0.0373265 0.217585 0.0184048 -0.046149 -0.0498629 0.233458 0 0 0 2.93712 -1.68163 17.9339 0.01 
63 1 7 -0.0376185 0.217053 0.0273843 -0.0516999 -0.0814732 0.231403 0 0 0 2.93712 -1.68163 17.9339 0.01 
64 1 7 -0.0379105 0.21652 0.0363637 -0.0572508 -0.113083 0.229348 0 0 0 2.93712 -1.68163 17.9339 0.01 
65 1 7 -0.0382024 0.215988 0.0453432 -0.0628018 -0.144694 0.227293 0 0 0 2.93712 -1.68163 17.9339 0.01 
66 1 7 -0.0384944 0.215455 0.0543227 -0.0683527 -0.176304 0.225238 0 0 0 2.93712 -1.68163 17.9339 0.01 
67 1 7 -0.0387864 0.214923 0.0633022 -0.0739036 -0.207914 0.223183 0 0 0 2.93712 -1.68163 17.9339 0.01 
68 1 7 -0.0390784 0.21439 0.0722817 -0.0794545 -0.239524 0.221128 0.0529094 -0.101481 -0.0451565 2.93712 -1.68163 17.9339 0.01 
69 1 7 -0.0393704 0.213858 0.0812612 -0.0850054 -0.271135 0.219073 -0.455285 0.315934 -0.268967 2.93712 -1.68163 17.9339 0.01 
70 1 7 -0.0396624 0.213325 0.0902407 -0.0905563 -0.302745 0.217018 -0.284167 0.235023 -0.699629 2.93712 -1.68163 17.9339 0.01 
71 1 8 0.125071 -0.132391 0.10925 0.125896 0.114796 -0.171553 0 0 0 -0.305739 -0.988862 -11.0173 0.01 
72 1 8 0.126198 -0.132509 0.118179 0.115774 0.105104 -0.170402 0 0 0 -0.305739 -0.988862 -11.0173 0.01 
73 1 8 0.127326 -0.132626 0.127107 0.105651 0.095412 -0.169251 0 0 0 -0.305739 -0.988862 -11.0173 0.01 
74 1 8 0.128453 -0.132744 0.136035 0.0955286 0.08572 -0.1681 0 0 0 -0.305739 -0.988862 -11.0173 0.01 
75 1 8 0.129581 -0.132861 0.144964 0.085406 0.0760281 -0.166949 0 0 0 -0.305739 -0.988862 -11.0173 0.01 
76 1 8 0.130708 -0.132978 0.153892 0.0752834 0.0663361 -0.165798 0 0 0 -0.305739 -0.988862 -11.0173 0.01 
77 1 8 0.131836 -0.133096 0.16282 0.0651608 0.0566442 -0.164648 0 0 0 -0.305739 -0.988862 -11.0173 0.01 
78 1 8 0.132963 -0.133213 0.171749 0.0550382 0.0469523 -0.163497 0 0 0 -0.305739 -0.988862 -11.0173 0.01 
79 1 8 0.134091 -0.133331 0.180677 0.0449157 0.0372603 -0.162346 0 0 0 -0.305739 -0.988862 -11.0173 0.01 
80 1 8 0.135218 -0.133448 0.189605 0.0347931 0.0275684 -0.161195 0 0 0 -0.305739 -0.988862 -11.0173 0.01 
81 1 9 -0.105855 0.0207601 0.125441 -0.104691 -0.0379395 -2.21496 -3.17811 -0.184705 2.537 -0.680789 1.19092 -2.00738 0.01 
82 1 9 -0.105577 0.0208862 0.134436 -0.0937254 -0.0323736 -2.21538 0 0 0 -0.680789 1.19092 -2.00738 0.01 
83 1 9 -0.105299 0.0210124 0.143431 -0.0827601 -0.0268076 -2.21579 0 0 0 -0.680789 1.19092 -2.00738 0.01 
84 1 9 -0.105021 0.0211385 0.152425 -0.0717948 -0.0212417 -2.21621 0 0 0 -0.680789 1.19092 -2.00738 0.01 
85 1 9 -0.104744 0.0212646 0.16142 -0.0608294 -0.0156757 -2.21663 0 0 0 -0.680789 1.19092 -2.00738 0.01 
86 1 9 -0.104466 0.0213908 0.170415 -0.0498641 -0.0101098 -2.21704 0 0 0 -0.680789 1.19092 -2.00738 0.01 
87 1 9 -0.104188 0.0215169 0.17941 -0.0388988 -0.00454382 -2.21746 0 0 0 -0.680789 1.19092 -2.00738 0.01 
88 1 9 -0.10391 0.0216431 0.188405 -0.0279334 0.00102213 -2.21788 0 0 0 -0.680789 1.19092 -2.00738 0.01 
89 1 9 -0.103632 0.0217692 0.1974 -0.0169681 0.00658808 -2.21829 0 0 0 -0.680789 1.19092 -2.00738 0.01 
90 1 9 -0.103355 0.0218954 0.206394 -0.00600276 0.012154 -2.21871 0 0 0 -0.680789 1.19092 -2.00738 0.01 
91 1 10 0.0582702 0.19988 0.110323 0.148202 -0.0830527 0.125484 0 0 0 -2.26517 -1.8163 3.88354 0.01 
92 1 10 0.057351 0.200502 0.119254 0.129568 -0.0663915 0.122407 0 0 0 -2.26517 -1.8163 3.88354 0.01 
93 1 10 0.0564318 0.201123 0.128186 0.110934 -0.0497303 0.119331 0 0 0 -2.26517 -1.8163 3.88354 0.01 
94 1 10 0.0555125 0.201744 0.137117 0.0922995 -0.0330692 0.116254 0 0 0 -2.26517 -1.8163 3.88354 0.01 
95 1 10 0.0545933 0.202365 0.146048 0.0736653 -0.016408 0.113178 0 0 0 -2.26517 -1.8163 3.88354 0.01 
96 1 10 0.0536741 0.202986 0.15498 0.055031 0.000253126 0.110101 0 0 0 -2.26517 -1.8163 3.88354 0.01 
97 1 10 0.0527549 0.203607 0.163911 0.0363968 0.0169143 0.107024 0 0 0 -2.26517 -1.8163 3.88354 0.01 
98 1 10 0.0518356 0.204228 0.172842 0.0177625 0.0335754 0.103948 0 0 0 -2.26517 -1.8163 3.88354 0.01 
99 1 10 0.0509164 0.20485 0.181774 -0.000871771 0.0502366 0.100871 -0.0175871 -0.0332186 0.0186125 -2.26517 -1.8163 3.88354 0.01 
100 1 10 0.0499972 0.205471 0.190705 -0.019506 0.0668978 0.0977948 0 0 0 -2.26517 -1.8163 3.88354 0.01 
101 1 11 -0.197409 -0.0927468 0.08417 -0.276616 0.0198833 -0.675313 -0.103066 -0.175925 0.134092 2.0183 1.66188 14.7269 0.01 
102 1 11 -0.196921 -0.093135 0.0931484 -0.255977 0.00895001 -0.676908 0 0 0 2.0183 1.66188 14.7269 0.01 
103 1 11 -0.196433 -0.0935232 0.102127 -0.235339 -0.00198332 -0.678503 0 0 0 2.0183 1.66188 14.7269 0.01 
104 1 11 -0.195945 -0.0939115 0.111105 -0.214701 -0.0129166 -0.680097 0 0 0 2.0183 1.66188 14.7269 0.01 
105 1 11 -0.195457 -0.0942997 0.120083 -0.194062 -0.02385 -0.681692 0 0 0 2.0183 1.66188 14.7269 0.01 
106 1 11 -0.194969 -0.0946879 0.129062 -0.173424 -0.0347833 -0.683287 0 0 0 2.0183 1.66188 14.7269 0.01 
107 1 11 -0.194481 -0.0950761 0.13804 -0.152786 -0.0457166 -0.684881 0 0 0 2.0183 1.66188 14.7269 0.01 
108 1 11 -0.193993 -0.0954643 0.147019 -0.132148 -0.0566499 -0.686476 0 0 0 2.0183 1.66188 14.7269 0.01 
109 1 11 -0.193505 -0.0958526 0.155997 -0.111509 -0.0675833 -0.688071 0 0 0 2.0183 1.66188 14.7269 0.01 
110 1 11 -0.193017 -0.0962408 0.164975 -0.090871 -0.0785166 -0.689665 0 0 0 2.0183 1.66188 14.7269 0.01 
111 1 12 0.0967299 0.0504826 0.11505 -0.104184 0.000612792 -0.0491213 0 0 0 -1.07782 3.25223 -1.804 0.01 
112 1 12 0.098393 0.0518425 0.12379 -0.0733068 0.00703257 -0.0559959 0 0 0 -1.07782 3.25223 -1.804 0.01 
113 1 12 0.100056 0.0532024 0.13253 -0.0424295 0.0134523 -0.0628704 0 0 0 -1.07782 3.25223 -1.804 0.01 
114 1 12 0.101719 0.0545623 0.14127 -0.0115522 0.0198721 -0.069745 0 0 0 -1.07782 3.25223 -1.804 0.01 
115 1 12 0.103382 0.0559222 0.15001 0.019325 0.0262919 -0.0766195 0 0 0 -1.07782 3.25223 -1.804 0.01 
116 1 12 0.105045 0.0572821 0.15875 0.0502023 0.0327117 -0.083494 0 0 0 -1.07782 3.25223 -1.804 0.01 
117 1 12 0.106709 0.058642 0.167489 0.0810796 0.0391315 -0.0903686 0 0 0 -1.07782 3.25223 -1.804 0.01 
118 1 12 0.108372 0.0600019 0.176229 0.111957 0.0455512 -0.0972431 0 0 0 -1.07782 3.25223 -1.804 0.01 
119 1 12 0.110035 0.0613618 0.184969 0.142834 0.051971 -0.104118 0 0 0 -1.07782 3.25223 -1.804 0.01 
120 1 12 0.111698 0.0627217 0.193709 0.173711 0.0583908 -0.110992 0 0 0 -1.07782 3.25223 -1.804 0.01 
121 1 13 -0.0164514 0.21925 0.112455 -0.017424 0.279434 -0.707142 0 0 0 8.2643 -1.85643 -1.11146 0.01 
122 1 13 -0.0167924 0.218237 0.121391 -0.0351396 0.205961 -0.716147 0 0 0 8.2643 -1.85643 -1.11146 0.01 
123 1 13 -0.0171334 0.217224 0.130328 -0.0528552 0.132488 -0.725152 0 0 0 8.2643 -1.85643 -1.11146 0.01 
124 1 13 -0.0174744 0.216211 0.139264 -0.0705708 0.0590146 -0.734158 0 0 0 8.2643 -1.85643 -1.11146 0.01 
125 1 13 -0.0178155 0.215198 0.1482 -0.0882864 -0.0144587 -0.743163 0 0 0 8.2643 -1.85643 -1.11146 0.01 
126 1 13 -0.0181565 0.214185 0.157137 -0.106002 -0.0879319 -0.752168 0 0 0 8.2643 -1.85643 -1.11146 0.01 
127 1 13 -0.0184975 0.213172 0.166073 -0.123718 -0.161405 -0.761173 0 0 0 8.2643 -1.85643 -1.11146 0.01 
128 1 13 -0.0188385 0.212159 0.175009 -0.141433 -0.234878 -0.770179 0 0 0 8.2643 -1.85643 -1.11146 0.01 
129 1 13 -0.0191795 0.211146 0.183945 -0.159149 -0.308352 -0.779184 0 0 0 8.2643 -1.85643 -1.11146 0.01 
130 1 13 -0.0195205 0.210133 0.192882 -0.176864 -0.381825 -0.788189 0 0 0 8.2643 -1.85643 -1.11146 0.01 
131 1 14 -0.0468681 0.120315 0.00988839 0.0154323 0.0221297 0.0151786 0.0271616 0.0252195 0.684134 -1.97077 1.42688 -3.69811 0.01 
132 1 14 -0.0461757 0.121067 0.0188301 0.0309732 0.0371914 0.0127081 0 0 0 -1.97077 1.42688 -3.69811 0.01 
133 1 14 -0.0454834 0.121819 0.0277719 0.046514 0.0522531 0.0102376 0 0 0 -1.97077 1.42688 -3.69811 0.01 
134 1 14 -0.044791 0.122572 0.0367136 0.0620548 0.0673148 0.0077671 0 0 0 -1.97077 1.42688 -3.69811 0.01 
135 1 14 -0.0440987 0.123324 0.0456553 0.0775957 0.0823765 0.0052966 0 0 0 -1.97077 1.42688 -3.69811 0.01 
136 1 14 -0.0434063 0.124076 0.0545971 0.0931365 0.0974382 0.00282609 0 0 0 -1.97077 1.42688 -3.69811 0.01 
137 1 14 -0.0427139 0.124829 0.0635388 0.108677 0.1125 0.00035559 0 0 0 -1.97077 1.42688 -3.69811 0.01 
138 1 14 -0.0420216 0.125581 0.0724806 0.124218 0.127562 -0.00211491 0 0 0 -1.97077 1.42688 -3.69811 0.01 
139 1 14 -0.0413292 0.126333 0.0814223 0.139759 0.142623 -0.00458541 0 0 0 -1.97077 1.42688 -3.69811 0.01 
140 1 14 -0.0406369 0.127086 0.090364 0.1553 0.157685 -0.00705592 -0.0220013 -0.0360355 -0.0186142 -1.97077 1.42688 -3.69811 0.01 
141 1 15 -0.0104758 -0.0692281 0.0377418 0 0 -2.37335 0 0 0 0 0 0 0.01 
142 1 15 -0.0104758 -0.0692281 0.0467418 0 0 -2.37335 0 0 0 0 0 0 0.01 
143 1 15 -0.0104758 -0.0692281 0.0557418 0 0 -2.37335 0 0 0 0 0 0 0.01 
144 1 15 -0.0104758 -0.0692281 0.0647418 0 0 -2.37335 0 0 0 0 0 0 0.01 
145 1 15 -0.0104758 -0.0692281 0.0737418 0 0 -2.37335 0 0 0 0 0 0 0.01 
146 1 15 -0.0104758 -0.0692281 0.0827418 0 0 -2.37335 0 0 0 0 0 0 0.01 
147 1 15 -0.0104758 -0.0692281 0.0917418 0 0 -2.37335 0 0 0 0 0 0 0.01 
148 1 15 -0.0104758 -0.0692281 0.100742 0 0 -2.37335 0 0 0 0 0 0 0.01 
149 1 15 -0.0104758 -0.0692281 0.109742 0 0 -2.37335 0 0 0 0 0 0 0.01 
150 1 15 -0.0104758 -0.0692281 0.118742 0 0 -2.37335 0 0 0 0 0 0 0.01 
151 1 16 -0.0373175 0.179852 0.0351094 -0.000636107 0.0550932 -0.921542 0 0 0 -1.91948 1.11695 5.86803 0.01 
152 1 16 -0.037351 0.179826 0.0441093 0.00956803 0.0721716 -0.921455 0 0 0 -1.91948 1.11695 5.86803 0.01 
153 1 16 -0.0373845 0.1798 0.0531092 0.0197722 0.0892499 -0.921368 0 0 0 -1.91948 1.11695 5.86803 0.01 
154 1 16 -0.037418 0.179774 0.0621091 0.0299763 0.106328 -0.921281 0 0 0 -1.91948 1.11695 5.86803 0.01 
155 1 16 -0.0374516 0.179748 0.071109 0.0401805 0.123407 -0.921194 0 0 0 -1.91948 1.11695 5.86803 0.01 
156 1 16 -0.0374851 0.179723 0.0801089 0.0503846 0.140485 -0.921107 0 0 0 -1.91948 1.11695 5.86803 0.01 
157 1 16 -0.0375186 0.179697 0.0891088 0.0605887 0.157563 -0.92102 0 0 0 -1.91948 1.11695 5.86803 0.01 
158 1 16 -0.0375522 0.179671 0.0981087 0.0707929 0.174642 -0.920933 0 0 0 -1.91948 1.11695 5.86803 0.01 
159 1 16 -0.0375857 0.179645 0.107109 0.080997 0.19172 -0.920846 0 0 0 -1.91948 1.11695 5.86803 0.01 
160 1 16 -0.0376192 0.179619 0.116109 0.0912011 0.208799 -0.920759 0 0 0 -1.91948 1.11695 5.86803 0.01 
161 1 17 0.072156 0.0930319 0.00997544 0.0194415 -0.00648234 0.0199622 0.0698363 -0.00141422 -0.429302 0.667626 0.158639 -0.162399 0.01 
162 1 17 0.0723971 0.0926275 0.0189631 0.0208017 -0.0125219 0.019654 0 0 0 0.667626 0.158639 -0.162399 0.01 
163 1 17 0.0726382 0.0922231 0.0279508 0.0221618 -0.0185615 0.0193457 0 0 0 0.667626 0.158639 -0.162399 0.01 
164 1 17 0.0728793 0.0918186 0.0369385 0.0235219 -0.024601 0.0190375 0 0 0 0.667626 0.158639 -0.162399 0.01 
165 1 17 0.0731203 0.0914142 0.0459261 0.024882 -0.0306406 0.0187292 0 0 0 0.667626 0.158639 -0.162399 0.01 
166 1 17 0.0733614 0.0910098 0.0549138 0.0262421 -0.0366801 0.018421 0 0 0 0.667626 0.158639 -0.162399 0.01 
167 1 17 0.0736025 0.0906054 0.0639015 0.0276023 -0.0427197 0.0181127 0 0 0 0.667626 0.158639 -0.162399 0.01 
168 1 17 0.0738436 0.0902009 0.0728892 0.0289624 -0.0487593 0.0178045 0 0 0 0.667626 0.158639 -0.162399 0.01 
169 1 17 0.0740847 0.0897965 0.0818768 0.0303225 -0.0547988 0.0174962 0 0 0 0.667626 0.158639 -0.162399 0.01 
170 1 17 0.0743258 0.0893921 0.0908645 0.0316826 -0.0608384 0.017188 0 0 0 0.667626 0.158639 -0.162399 0.01 
171 1 18 -0.244014 -0.0438086 0.122827 -0.135527 0.196554 -1.67617 0 0 0 5.43964 1.95193 4.28692 0.01 
172 1 18 -0.243475 -0.0431649 0.131788 -0.120796 0.150123 -1.67372 0 0 0 5.43964 1.95193 4.28692 0.01 
173 1 18 -0.242936 -0.0425213 0.140749 -0.106064 0.103692 -1.67127 0 0 0 5.43964 1.95193 4.28692 0.01 
174 1 18 -0.242396 -0.0418776 0.149709 -0.0913327 0.0572605 -1.66882 0 0 0 5.43964 1.95193 4.28692 0.01 
175 1 18 -0.241857 -0.041234 0.15867 -0.0766012 0.0108293 -1.66637 0 0 0 5.43964 1.95193 4.28692 0.01 
176 1 18 -0.241318 -0.0405903 0.167631 -0.0618697 -0.035602 -1.66392 0 0 0 5.43964 1.95193 4.28692 0.01 
177 1 18 -0.240778 -0.0399467 0.176592 -0.0471382 -0.0820332 -1.66147 0 0 0 5.43964 1.95193 4.28692 0.01 
178 1 18 -0.240239 -0.039303 0.185552 -0.0324068 -0.128464 -1.65903 0 0 0 5.43964 1.95193 4.28692 0.01 
179 1 18 -0.2397 -0.0386593 0.194513 -0.0176753 -0.174896 -1.65658 0 0 0 5.43964 1.95193 4.28692 0.01 
180 1 18 -0.239161 -0.0380157 0.203474 -0.0029438 -0.221327 -1.65413 0 0 0 5.43964 1.95193 4.28692 0.01 
181 1 19 0.000670372 0.169289 0.110045 0.060397 0.0957482 0.00546041 -0.0308089 0.0834522 0.133791 1.70018 0.99919 -3.41046 0.01 
182 1 19 0.00201426 0.1682 0.118878 0.0655085 0.0761485 0.00226635 0 0 0 1.70018 0.99919 -3.41046 0.01 
183 1 19 0.00335814 0.167111 0.12771 0.0706201 0.0565489 -0.000927706 0 0 0 1.70018 0.99919 -3.41046 0.01 
184 1 19 0.00470202 0.166022 0.136542 0.0757316 0.0369492 -0.00412176 0 0 0 1.70018 0.99919 -3.41046 0.01 
185 1 19 0.00604591 0.164933 0.145374 0.0808432 0.0173495 -0.00731582 0 0 0 1.70018 0.99919 -3.41046 0.01 
186 1 19 0.00738979 0.163845 0.154207 0.0859547 -0.00225015 -0.0105099 0 0 0 1.70018 0.99919 -3.41046 0.01 
187 1 19 0.00873368 0.162756 0.163039 0.0910663 -0.0218498 -0.0137039 0 0 0 1.70018 0.99919 -3.41046 0.01 
188 1 19 0.0100776 0.161667 0.171871 0.0961778 -0.0414495 -0.016898 0 0 0 1.70018 0.99919 -3.41046 0.01 
189 1 19 0.0114214 0.160578 0.180703 0.101289 -0.0610492 -0.0200921 0 0 0 1.70018 0.99919 -3.41046 0.01 
190 1 19 0.0127653 0.159489 0.189536 0.106401 -0.0806488 -0.0232861 0 0 0 1.70018 0.99919 -3.41046 0.01 
191 1 20 -0.00703303 0.187905 0.00988157 0.0136914 0.0136287 -0.0135091 0.403173 -0.225195 2.13766 -0.343506 3.21169 10.0651 0.01 
192 1 20 -0.00685002 0.188713 0.0188434 0.0343463 0.0185491 -0.0143743 -0.223763 0.162093 0.402005 -0.343506 3.21169 10.0651 0.01 
193 1 20 -0.00666702 0.18952 0.0278052 0.0550012 0.0234695 -0.0152394 0 0 0 -0.343506 3.21169 10.0651 0.01 
194 1 20 -0.00648401 0.190328 0.0367671 0.0756561 0.0283899 -0.0161045 0 0 0 -0.343506 3.21169 10.0651 0.01 
195 1 20 -0.00630101 0.191135 0.0457289 0.0963109 0.0333103 -0.0169697 0 0 0 -0.343506 3.21169 10.0651 0.01 
196 1 20 -0.006118 0.191943 0.0546907 0.116966 0.0382307 -0.0178348 0 0 0 -0.343506 3.21169 10.0651 0.01 
197 1 20 -0.005935 0.19275 0.0636526 0.137621 0.0431511 -0.0187 0 0 0 -0.343506 3.21169 10.0651 0.01 
198 1 20 -0.00575199 0.193558 0.0726144 0.158276 0.0480715 -0.0195651 0 0 0 -0.343506 3.21169 10.0651 0.01 
199 1 20 -0.00556899 0.194365 0.0815762 0.17893 0.0529919 -0.0204303 0 0 0 -0.343506 3.21169 10.0651 0.01 
200 1 20 -0.00538598 0.195173 0.0905381 0.199585 0.0579123 -0.0212954 1.16804 -0.732081 -0.537025 -0.343506 3.21169 10.0651 0.01 
201 1 21 0.0182293 0.00483845 0.00996594 -0.00304767 0.0124019 0.00399303 0.00827421 -0.0311882 0.106586 -1.19493 -0.299951 0.514861 0.01 
202 1 21 0.0172236 0.00622848 0.0188009 -0.0064134 0.0224413 0.00203038 0 0 0 -1.19493 -0.299951 0.514861 0.01 
203 1 21 0.016218 0.00761851 0.0276359 -0.00977912 0.0324807 6.77306e-05 0 0 0 -1.19493 -0.299951 0.514861 0.01 
204 1 21 0.0152123 0.00900854 0.0364708 -0.0131449 0.0425201 -0.00189492 0 0 0 -1.19493 -0.299951 0.514861 0.01 
205 1 21 0.0142066 0.0103986 0.0453058 -0.0165106 0.0525595 -0.00385757 0 0 0 -1.19493 -0.299951 0.514861 0.01 
206 1 21 0.0132009 0.0117886 0.0541407 -0.0198763 0.0625988 -0.00582022 0 0 0 -1.19493 -0.299951 0.514861 0.01 
207 1 21 0.0121952 0.0131786 0.0629757 -0.023242 0.0726382 -0.00778287 0 0 0 -1.19493 -0.299951 0.514861 0.01 
208 1 21 0.0111895 0.0145687 0.0718106 -0.0266078 0.0826776 -0.00974552 0 0 0 -1.19493 -0.299951 0.514861 0.01 
209 1 21 0.0101838 0.0159587 0.0806456 -0.0299735 0.092717 -0.0117082 0 0 0 -1.19493 -0.299951 0.514861 0.01 
210 1 21 0.00917815 0.0173487 0.0894805 -0.0333392 0.102756 -0.0136708 0 0 0 -1.19493 -0.299951 0.514861 0.01 
211 1 22 0.00172728 0.210621 0.111244 0.0910816 0.178852 -0.0505776 0 0 0 3.82539 -4.43832 4.62568 0.01 
212 1 22 0.00142173 0.208292 0.119932 0.0632945 0.144203 -0.0608431 0 0 0 3.82539 -4.43832 4.62568 0.01 
213 1 22 0.00111618 0.205963 0.12862 0.0355073 0.109555 -0.0711086 0 0 0 3.82539 -4.43832 4.62568 0.01 
214 1 22 0.000810637 0.203634 0.137308 0.00772017 0.074906 -0.0813741 0 0 0 3.82539 -4.43832 4.62568 0.01 
215 1 22 0.000505089 0.201305 0.145996 -0.020067 0.0402575 -0.0916396 0 0 0 3.82539 -4.43832 4.62568 0.01 
216 1 22 0.000199541 0.198976 0.154684 -0.0478541 0.00560887 -0.101905 0 0 0 3.82539 -4.43832 4.62568 0.01 
217 1 22 -0.000106007 0.196647 0.163372 -0.0756413 -0.0290397 -0.112171 0 0 0 3.82539 -4.43832 4.62568 0.01 
218 1 22 -0.000411555 0.194318 0.17206 -0.103428 -0.0636883 -0.122436 0 0 0 3.82539 -4.43832 4.62568 0.01 
219 1 22 -0.000717103 0.191989 0.180748 -0.131216 -0.0983369 -0.132702 0 0 0 3.82539 -4.43832 4.62568 0.01 
220 1 22 -0.00102265 0.18966 0.189436 -0.159003 -0.132985 -0.142967 0 0 0 3.82539 -4.43832 4.62568 0.01 
221 1 23 0.214666 0.0535703 0.111064 0.0981149 0.044008 -1.15284 0 0 0 -1.80291 -5.20572 -7.66959 0.01 
222 1 23 0.214399 0.0541076 0.120044 0.0554879 0.062247 -1.1552 0 0 0 -1.80291 -5.20572 -7.66959 0.01 
223 1 23 0.214132 0.0546448 0.129024 0.0128608 0.0804859 -1.15756 0 0 0 -1.80291 -5.20572 -7.66959 0.01 
224 1 23 0.213865 0.055182 0.138004 -0.0297662 0.0987248 -1.15992 0 0 0 -1.80291 -5.20572 -7.66959 0.01 
225 1 23 0.213597 0.0557192 0.146984 -0.0723933 0.116964 -1.16228 0 0 0 -1.80291 -5.20572 -7.66959 0.01 
226 1 23 0.21333 0.0562564 0.155964 -0.11502 0.135203 -1.16464 0 0 0 -1.80291 -5.20572 -7.66959 0.01 
227 1 23 0.213063 0.0567936 0.164944 -0.157647 0.153442 -1.167 0 0 0 -1.80291 -5.20572 -7.66959 0.01 
228 1 23 0.212796 0.0573309 0.173924 -0.200274 0.171681 -1.16935 0 0 0 -1.80291 -5.20572 -7.66959 0.01 
229 1 23 0.212529 0.0578681 0.182904 -0.242902 0.18992 -1.17171 0 0 0 -1.80291 -5.20572 -7.66959 0.01 
230 1 23 0.212262 0.0584053 0.191884 -0.285529 0.208158 -1.17407 -0.102628 -0.460604 0.377011 -1.80291 -5.20572 -7.66959 0.01 
231 1 24 0.158341 0.0235471 0.00991796 0.00901375 -0.0194591 -0.0123364 0.0682624 -0.106612 0.848388 1.92316 1.25349 5.55012 0.01 
232 1 24 0.159184 0.0215095 0.0186437 0.0312604 -0.0315623 -0.0173116 0 0 0 1.92316 1.25349 5.55012 0.01 
233 1 24 0.160027 0.0194719 0.0273693 0.0535071 -0.0436655 -0.0222868 0 0 0 1.92316 1.25349 5.55012 0.01 
234 1 24 0.16087 0.0174342 0.036095 0.0757537 -0.0557686 -0.0272619 0 0 0 1.92316 1.25349 5.55012 0.01 
235 1 24 0.161713 0.0153966 0.0448207 0.0980004 -0.0678718 -0.0322371 0 0 0 1.92316 1.25349 5.55012 0.01 
236 1 24 0.162555 0.013359 0.0535464 0.120247 -0.079975 -0.0372122 0 0 0 1.92316 1.25349 5.55012 0.01 
237 1 24 0.163398 0.0113213 0.0622721 0.142494 -0.0920781 -0.0421874 0 0 0 1.92316 1.25349 5.55012 0.01 
238 1 24 0.164241 0.00928369 0.0709978 0.16474 -0.104181 -0.0471626 0 0 0 1.92316 1.25349 5.55012 0.01 
239 1 24 0.165084 0.00724605 0.0797235 0.186987 -0.116284 -0.0521377 0 0 0 1.92316 1.25349 5.55012 0.01 
240 1 24 0.165927 0.00520841 0.0884492 0.209234 -0.128388 -0.0571129 0 0 0 1.92316 1.25349 5.55012 0.01 
241 1 25 0.13486 -0.174142 0.112799 -0.0145621 -0.00303193 0.0635632 0 0 0 -0.335793 1.46205 -0.00774203 0.01 
242 1 25 0.135194 -0.174065 0.121792 -0.00141262 -1.45781e-05 0.0630487 0 0 0 -0.335793 1.46205 -0.00774203 0.01 
243 1 25 0.135528 -0.173988 0.130785 0.0117368 0.00300277 0.0625341 0 0 0 -0.335793 1.46205 -0.00774203 0.01 
244 1 25 0.135862 -0.173911 0.139779 0.0248863 0.00602013 0.0620196 0 0 0 -0.335793 1.46205 -0.00774203 0.01 
245 1 25 0.136196 -0.173834 0.148772 0.0380357 0.00903748 0.061505 0 0 0 -0.335793 1.46205 -0.00774203 0.01 
246 1 25 0.136531 -0.173756 0.157766 0.0511852 0.0120548 0.0609905 0 0 0 -0.335793 1.46205 -0.00774203 0.01 
247 1 25 0.136865 -0.173679 0.166759 0.0643346 0.0150722 0.0604759 0 0 0 -0.335793 1.46205 -0.00774203 0.01 
248 1 25 0.137199 -0.173602 0.175753 0.0774841 0.0180895 0.0599614 0 0 0 -0.335793 1.46205 -0.00774203 0.01 
249 1 25 0.137533 -0.173525 0.184746 0.0906336 0.0211069 0.0594468 0 0 0 -0.335793 1.46205 -0.00774203 0.01 
250 1 25 0.137868 -0.173448 0.19374 0.103783 0.0241242 0.0589323 0 0 0 -0.335793 1.46205 -0.00774203 0.01 
251 1 26 -0.00803369 -0.169677 0.00989157 0.294231 -0.159267 0.0681879 -0.180741 0.0905858 -0.404342 -0.348869 -2.90386 -1.20433 0.01 
252 1 26 -0.00690722 -0.170667 0.0187657 0.267269 -0.157528 0.0718044 0 0 0 -0.348869 -2.90386 -1.20433 0.01 
253 1 26 -0.00578075 -0.171657 0.0276399 0.240308 -0.155788 0.0754209 1.31526 -0.756218 -1.26851 -0.348869 -2.90386 -1.20433 0.01 
254 1 26 -0.00465428 -0.172647 0.0365141 0.213346 -0.154049 0.0790374 0 0 0 -0.348869 -2.90386 -1.20433 0.01 
255 1 26 -0.0035278 -0.173637 0.0453883 0.186384 -0.15231 0.0826539 0 0 0 -0.348869 -2.90386 -1.20433 0.01 
256 1 26 -0.00240133 -0.174627 0.0542624 0.159423 -0.15057 0.0862704 0 0 0 -0.348869 -2.90386 -1.20433 0.01 
257 1 26 -0.00127486 -0.175617 0.0631366 0.132461 -0.148831 0.0898869 0 0 0 -0.348869 -2.90386 -1.20433 0.01 
258 1 26 -0.00014839 -0.176607 0.0720108 0.105499 -0.147092 0.0935034 0 0 0 -0.348869 -2.90386 -1.20433 0.01 
259 1 26 0.000978081 -0.177597 0.0808849 0.0785377 -0.145353 0.0971199 0 0 0 -0.348869 -2.90386 -1.20433 0.01 
260 1 26 0.00210455 -0.178587 0.0897591 0.051576 -0.143613 0.100736 0.832216 -0.195264 0.135859 -0.348869 -2.90386 -1.20433 0.01 
261 1 27 -0.134691 0.162658 0.113226 0.503113 0.276456 0.312394 0 0 0 6.78142 -4.84548 -8.52624 0.01 
262 1 27 -0.136029 0.160333 0.121817 0.441658 0.229604 0.290141 0 0 0 6.78142 -4.84548 -8.52624 0.01 
263 1 27 -0.137367 0.158007 0.130408 0.380203 0.182752 0.267889 0 0 0 6.78142 -4.84548 -8.52624 0.01 
264 1 27 -0.138704 0.155682 0.138999 0.318748 0.1359 0.245636 0 0 0 6.78142 -4.84548 -8.52624 0.01 
265 1 27 -0.140042 0.153356 0.14759 0.257293 0.0890473 0.223384 0 0 0 6.78142 -4.84548 -8.52624 0.01 
266 1 27 -0.14138 0.151031 0.156181 0.195839 0.042195 0.201132 0 0 0 6.78142 -4.84548 -8.52624 0.01 
267 1 27 -0.142718 0.148705 0.164771 0.134384 -0.00465729 0.178879 0 0 0 6.78142 -4.84548 -8.52624 0.01 
268 1 27 -0.144055 0.14638 0.173362 0.0729291 -0.0515096 0.156627 0 0 0 6.78142 -4.84548 -8.52624 0.01 
269 1 27 -0.145393 0.144054 0.181953 0.0114742 -0.0983618 0.134375 0 0 0 6.78142 -4.84548 -8.52624 0.01 
270 1 27 -0.146731 0.141728 0.190544 -0.0499806 -0.145214 0.112122 0.0467637 1.56201 0.514506 6.78142 -4.84548 -8.52624 0.01 
271 1 28 0.0143653 -0.168632 0.107485 0.0291138 -0.168058 -0.262556 0 0 0 -2.05145 -3.77982 -4.18138 0.01 
272 1 28 0.0127855 -0.16675 0.116143 0.00425589 -0.14369 -0.272388 0 0 0 -2.05145 -3.77982 -4.18138 0.01 
273 1 28 0.0112057 -0.164868 0.124801 -0.020602 -0.119323 -0.282219 0 0 0 -2.05145 -3.77982 -4.18138 0.01 
274 1 28 0.00962588 -0.162987 0.133459 -0.0454598 -0.0949554 -0.292051 0 0 0 -2.05145 -3.77982 -4.18138 0.01 
275 1 28 0.00804607 -0.161105 0.142117 -0.0703177 -0.0705879 -0.301883 0 0 0 -2.05145 -3.77982 -4.18138 0.01 
276 1 28 0.00646626 -0.159223 0.150775 -0.0951756 -0.0462204 -0.311714 0 0 0 -2.05145 -3.77982 -4.18138 0.01 