ITEM: TIMESTEP
2000
ITEM: NUMBER OF ATOMS
6300
ITEM: BOX BOUNDS mm mm mm
-0.3 0.3
-0.3 0.3
0 0.5
ITEM: ATOMS id type mol x y z vx vy vz fx fy fz omegax omegay omegaz radius 
1 1 1 -0.115317 -0.129414 0.222233 0 0 -1.19615 0 0 0 0 0 0 0.01 
2 1 1 -0.115317 -0.129414 0.231233 0 0 -1.19615 0 0 0 0 0 0 0.01 
3 1 1 -0.115317 -0.129414 0.240233 0 0 -1.19615 0 0 0 0 0 0 0.01 
4 1 1 -0.115317 -0.129414 0.249233 0 0 -1.19615 0 0 0 0 0 0 0.01 
5 1 1 -0.115317 -0.129414 0.258233 0 0 -1.19615 0 0 0 0 0 0 0.01 
6 1 1 -0.115317 -0.129414 0.267233 0 0 -1.19615 0 0 0 0 0 0 0.01 
7 1 1 -0.115317 -0.129414 0.276233 0 0 -1.19615 0 0 0 0 0 0 0.01 
8 1 1 -0.115317 -0.129414 0.285233 0 0 -1.19615 0 0 0 0 0 0 0.01 
9 1 1 -0.115317 -0.129414 0.294233 0 0 -1.19615 0 0 0 0 0 0 0.01 
10 1 1 -0.115317 -0.129414 0.303233 0 0 -1.19615 0 0 0 0 0 0 0.01 
11 1 2 -0.0460582 -0.101391 0.211773 0 0 -1.19615 0 0 0 0 0 0 0.01 
12 1 2 -0.0460582 -0.101391 0.220773 0 0 -1.19615 0 0 0 0 0 0 0.01 
13 1 2 -0.0460582 -0.101391 0.229773 0 0 -1.19615 0 0 0 0 0 0 0.01 
14 1 2 -0.0460582 -0.101391 0.238773 0 0 -1.19615 0 0 0 0 0 0 0.01 
15 1 2 -0.0460582 -0.101391 0.247773 0 0 -1.19615 0 0 0 0 0 0 0.01 
16 1 2 -0.0460582 -0.101391 0.256773 0 0 -1.19615 0 0 0 0 0 0 0.01 
17 1 2 -0.0460582 -0.101391 0.265773 0 0 -1.19615 0 0 0 0 0 0 0.01 
18 1 2 -0.0460582 -0.101391 0.274773 0 0 -1.19615 0 0 0 0 0 0 0.01 
19 1 2 -0.0460582 -0.101391 0.283773 0 0 -1.19615 0 0 0 0 0 0 0.01 
20 1 2 -0.0460582 -0.101391 0.292773 0 0 -1.19615 0 0 0 0 0 0 0.01 
21 1 3 -0.0433468 -0.0313624 0.197831 0 0 -1.19615 0 0 0 0 0 0 0.01 
22 1 3 -0.0433468 -0.0313624 0.206831 0 0 -1.19615 0 0 0 0 0 0 0.01 
23 1 3 -0.0433468 -0.0313624 0.215831 0 0 -1.19615 0 0 0 0 0 0 0.01 
24 1 3 -0.0433468 -0.0313624 0.224831 0 0 -1.19615 0 0 0 0 0 0 0.01 
25 1 3 -0.0433468 -0.0313624 0.233831 0 0 -1.19615 0 0 0 0 0 0 0.01 
26 1 3 -0.0433468 -0.0313624 0.242831 0 0 -1.19615 0 0 0 0 0 0 0.01 
27 1 3 -0.0433468 -0.0313624 0.251831 0 0 -1.19615 0 0 0 0 0 0 0.01 
28 1 3 -0.0433468 -0.0313624 0.260831 0 0 -1.19615 0 0 0 0 0 0 0.01 
29 1 3 -0.0433468 -0.0313624 0.269831 0 0 -1.19615 0 0 0 0 0 0 0.01 
30 1 3 -0.0433468 -0.0313624 0.278831 0 0 -1.19615 0 0 0 0 0 0 0.01 
31 1 4 -0.0929903 0.110329 0.138593 0 0 -1.19615 0 0 0 0 0 0 0.01 
32 1 4 -0.0929903 0.110329 0.147593 0 0 -1.19615 0 0 0 0 0 0 0.01 
33 1 4 -0.0929903 0.110329 0.156593 0 0 -1.19615 0 0 0 0 0 0 0.01 
34 1 4 -0.0929903 0.110329 0.165593 0 0 -1.19615 0 0 0 0 0 0 0.01 
35 1 4 -0.0929903 0.110329 0.174593 0 0 -1.19615 0 0 0 0 0 0 0.01 
36 1 4 -0.0929903 0.110329 0.183593 0 0 -1.19615 0 0 0 0 0 0 0.01 
37 1 4 -0.0929903 0.110329 0.192593 0 0 -1.19615 0 0 0 0 0 0 0.01 
38 1 4 -0.0929903 0.110329 0.201593 0 0 -1.19615 0 0 0 0 0 0 0.01 
39 1 4 -0.0929903 0.110329 0.210593 0 0 -1.19615 0 0 0 0 0 0 0.01 
40 1 4 -0.0929903 0.110329 0.219593 0 0 -1.19615 0 0 0 0 0 0 0.01 
41 1 5 0.0772217 -0.137096 0.156464 0 0 -1.19615 0 0 0 0 0 0 0.01 
42 1 5 0.0772217 -0.137096 0.165464 0 0 -1.19615 0 0 0 0 0 0 0.01 
43 1 5 0.0772217 -0.137096 0.174464 0 0 -1.19615 0 0 0 0 0 0 0.01 
44 1 5 0.0772217 -0.137096 0.183464 0 0 -1.19615 0 0 0 0 0 0 0.01 
45 1 5 0.0772217 -0.137096 0.192464 0 0 -1.19615 0 0 0 0 0 0 0.01 
46 1 5 0.0772217 -0.137096 0.201464 0 0 -1.19615 0 0 0 0 0 0 0.01 
47 1 5 0.0772217 -0.137096 0.210464 0 0 -1.19615 0 0 0 0 0 0 0.01 
48 1 5 0.0772217 -0.137096 0.219464 0 0 -1.19615 0 0 0 0 0 0 0.01 
49 1 5 0.0772217 -0.137096 0.228464 0 0 -1.19615 0 0 0 0 0 0 0.01 
50 1 5 0.0772217 -0.137096 0.237464 0 0 -1.19615 0 0 0 0 0 0 0.01 
51 1 6 0.170849 -0.044483 0.187034 0 0 -1.19615 0 0 0 0 0 0 0.01 
52 1 6 0.170849 -0.044483 0.196034 0 0 -1.19615 0 0 0 0 0 0 0.01 
53 1 6 0.170849 -0.044483 0.205034 0 0 -1.19615 0 0 0 0 0 0 0.01 
54 1 6 0.170849 -0.044483 0.214034 0 0 -1.19615 0 0 0 0 0 0 0.01 
55 1 6 0.170849 -0.044483 0.223034 0 0 -1.19615 0 0 0 0 0 0 0.01 
56 1 6 0.170849 -0.044483 0.232034 0 0 -1.19615 0 0 0 0 0 0 0.01 
57 1 6 0.170849 -0.044483 0.241034 0 0 -1.19615 0 0 0 0 0 0 0.01 
58 1 6 0.170849 -0.044483 0.250034 0 0 -1.19615 0 0 0 0 0 0 0.01 
59 1 6 0.170849 -0.044483 0.259034 0 0 -1.19615 0 0 0 0 0 0 0.01 
60 1 6 0.170849 -0.044483 0.268034 0 0 -1.19615 0 0 0 0 0 0 0.01 
61 1 7 -0.0369062 0.215855 0.189556 0 0 -1.19615 0 0 0 0 0 0 0.01 
62 1 7 -0.0369062 0.215855 0.198556 0 0 -1.19615 0 0 0 0 0 0 0.01 
63 1 7 -0.0369062 0.215855 0.207556 0 0 -1.19615 0 0 0 0 0 0 0.01 
64 1 7 -0.0369062 0.215855 0.216556 0 0 -1.19615 0 0 0 0 0 0 0.01 
65 1 7 -0.0369062 0.215855 0.225556 0 0 -1.19615 0 0 0 0 0 0 0.01 
66 1 7 -0.0369062 0.215855 0.234556 0 0 -1.19615 0 0 0 0 0 0 0.01 
67 1 7 -0.0369062 0.215855 0.243556 0 0 -1.19615 0 0 0 0 0 0 0.01 
68 1 7 -0.0369062 0.215855 0.252556 0 0 -1.19615 0 0 0 0 0 0 0.01 
69 1 7 -0.0369062 0.215855 0.261556 0 0 -1.19615 0 0 0 0 0 0 0.01 
70 1 7 -0.0369062 0.215855 0.270556 0 0 -1.19615 0 0 0 0 0 0 0.01 
71 1 8 0.122768 -0.136526 0.204413 0 0 -1.19615 0 0 0 0 0 0 0.01 
72 1 8 0.122768 -0.136526 0.213413 0 0 -1.19615 0 0 0 0 0 0 0.01 
73 1 8 0.122768 -0.136526 0.222413 0 0 -1.19615 0 0 0 0 0 0 0.01 
74 1 8 0.122768 -0.136526 0.231413 0 0 -1.19615 0 0 0 0 0 0 0.01 
75 1 8 0.122768 -0.136526 0.240413 0 0 -1.19615 0 0 0 0 0 0 0.01 
76 1 8 0.122768 -0.136526 0.249413 0 0 -1.19615 0 0 0 0 0 0 0.01 
77 1 8 0.122768 -0.136526 0.258413 0 0 -1.19615 0 0 0 0 0 0 0.01 
78 1 8 0.122768 -0.136526 0.267413 0 0 -1.19615 0 0 0 0 0 0 0.01 
79 1 8 0.122768 -0.136526 0.276413 0 0 -1.19615 0 0 0 0 0 0 0.01 
80 1 8 0.122768 -0.136526 0.285413 0 0 -1.19615 0 0 0 0 0 0 0.01 
81 1 9 -0.103348 0.0216352 0.336403 0 0 -1.19615 0 0 0 0 0 0 0.01 
82 1 9 -0.103348 0.0216352 0.345403 0 0 -1.19615 0 0 0 0 0 0 0.01 
83 1 9 -0.103348 0.0216352 0.354403 0 0 -1.19615 0 0 0 0 0 0 0.01 
84 1 9 -0.103348 0.0216352 0.363403 0 0 -1.19615 0 0 0 0 0 0 0.01 
85 1 9 -0.103348 0.0216352 0.372403 0 0 -1.19615 0 0 0 0 0 0 0.01 
86 1 9 -0.103348 0.0216352 0.381403 0 0 -1.19615 0 0 0 0 0 0 0.01 
87 1 9 -0.103348 0.0216352 0.390403 0 0 -1.19615 0 0 0 0 0 0 0.01 
88 1 9 -0.103348 0.0216352 0.399403 0 0 -1.19615 0 0 0 0 0 0 0.01 
89 1 9 -0.103348 0.0216352 0.408403 0 0 -1.19615 0 0 0 0 0 0 0.01 
90 1 9 -0.103348 0.0216352 0.417403 0 0 -1.19615 0 0 0 0 0 0 0.01 
91 1 10 0.0526392 0.204817 0.172873 0 0 -1.19615 0 0 0 0 0 0 0.01 
92 1 10 0.0526392 0.204817 0.181873 0 0 -1.19615 0 0 0 0 0 0 0.01 
93 1 10 0.0526392 0.204817 0.190873 0 0 -1.19615 0 0 0 0 0 0 0.01 
94 1 10 0.0526392 0.204817 0.199873 0 0 -1.19615 0 0 0 0 0 0 0.01 
95 1 10 0.0526392 0.204817 0.208873 0 0 -1.19615 0 0 0 0 0 0 0.01 
96 1 10 0.0526392 0.204817 0.217873 0 0 -1.19615 0 0 0 0 0 0 0.01 
97 1 10 0.0526392 0.204817 0.226873 0 0 -1.19615 0 0 0 0 0 0 0.01 
98 1 10 0.0526392 0.204817 0.235873 0 0 -1.19615 0 0 0 0 0 0 0.01 
99 1 10 0.0526392 0.204817 0.244873 0 0 -1.19615 0 0 0 0 0 0 0.01 
100 1 10 0.0526392 0.204817 0.253873 0 0 -1.19615 0 0 0 0 0 0 0.01 
101 1 11 -0.191384 -0.0894902 0.225183 0 0 -1.19615 0 0 0 0 0 0 0.01 
102 1 11 -0.191384 -0.0894902 0.234183 0 0 -1.19615 0 0 0 0 0 0 0.01 
103 1 11 -0.191384 -0.0894902 0.243183 0 0 -1.19615 0 0 0 0 0 0 0.01 
104 1 11 -0.191384 -0.0894902 0.252183 0 0 -1.19615 0 0 0 0 0 0 0.01 
105 1 11 -0.191384 -0.0894902 0.261183 0 0 -1.19615 0 0 0 0 0 0 0.01 
106 1 11 -0.191384 -0.0894902 0.270183 0 0 -1.19615 0 0 0 0 0 0 0.01 
107 1 11 -0.191384 -0.0894902 0.279183 0 0 -1.19615 0 0 0 0 0 0 0.01 
108 1 11 -0.191384 -0.0894902 0.288183 0 0 -1.19615 0 0 0 0 0 0 0.01 
109 1 11 -0.191384 -0.0894902 0.297183 0 0 -1.19615 0 0 0 0 0 0 0.01 
110 1 11 -0.191384 -0.0894902 0.306183 0 0 -1.19615 0 0 0 0 0 0 0.01 
111 1 12 0.0959754 0.0567813 0.156315 0 0 -1.19615 0 0 0 0 0 0 0.01 
112 1 12 0.0959754 0.0567813 0.165315 0 0 -1.19615 0 0 0 0 0 0 0.01 
113 1 12 0.0959754 0.0567813 0.174315 0 0 -1.19615 0 0 0 0 0 0 0.01 
114 1 12 0.0959754 0.0567813 0.183315 0 0 -1.19615 0 0 0 0 0 0 0.01 
115 1 12 0.0959754 0.0567813 0.192315 0 0 -1.19615 0 0 0 0 0 0 0.01 
116 1 12 0.0959754 0.0567813 0.201315 0 0 -1.19615 0 0 0 0 0 0 0.01 
117 1 12 0.0959754 0.0567813 0.210315 0 0 -1.19615 0 0 0 0 0 0 0.01 
118 1 12 0.0959754 0.0567813 0.219315 0 0 -1.19615 0 0 0 0 0 0 0.01 
119 1 12 0.0959754 0.0567813 0.228315 0 0 -1.19615 0 0 0 0 0 0 0.01 
120 1 12 0.0959754 0.0567813 0.237315 0 0 -1.19615 0 0 0 0 0 0 0.01 
121 1 13 -0.0168848 0.215837 0.309553 0 0 -1.19615 0 0 0 0 0 0 0.01 
122 1 13 -0.0168848 0.215837 0.318553 0 0 -1.19615 0 0 0 0 0 0 0.01 
123 1 13 -0.0168848 0.215837 0.327553 0 0 -1.19615 0 0 0 0 0 0 0.01 
124 1 13 -0.0168848 0.215837 0.336553 0 0 -1.19615 0 0 0 0 0 0 0.01 
125 1 13 -0.0168848 0.215837 0.345553 0 0 -1.19615 0 0 0 0 0 0 0.01 
126 1 13 -0.0168848 0.215837 0.354553 0 0 -1.19615 0 0 0 0 0 0 0.01 
127 1 13 -0.0168848 0.215837 0.363553 0 0 -1.19615 0 0 0 0 0 0 0.01 
128 1 13 -0.0168848 0.215837 0.372553 0 0 -1.19615 0 0 0 0 0 0 0.01 
129 1 13 -0.0168848 0.215837 0.381553 0 0 -1.19615 0 0 0 0 0 0 0.01 
130 1 13 -0.0168848 0.215837 0.390553 0 0 -1.19615 0 0 0 0 0 0 0.01 
131 1 14 -0.0494958 0.122461 0.0807038 0 0 -1.19615 0 0 0 0 0 0 0.01 
132 1 14 -0.0494958 0.122461 0.0897038 0 0 -1.19615 0 0 0 0 0 0 0.01 
133 1 14 -0.0494958 0.122461 0.0987038 0 0 -1.19615 0 0 0 0 0 0 0.01 
134 1 14 -0.0494958 0.122461 0.107704 0 0 -1.19615 0 0 0 0 0 0 0.01 
135 1 14 -0.0494958 0.122461 0.116704 0 0 -1.19615 0 0 0 0 0 0 0.01 
136 1 14 -0.0494958 0.122461 0.125704 0 0 -1.19615 0 0 0 0 0 0 0.01 
137 1 14 -0.0494958 0.122461 0.134704 0 0 -1.19615 0 0 0 0 0 0 0.01 
138 1 14 -0.0494958 0.122461 0.143704 0 0 -1.19615 0 0 0 0 0 0 0.01 
139 1 14 -0.0494958 0.122461 0.152704 0 0 -1.19615 0 0 0 0 0 0 0.01 
140 1 14 -0.0494958 0.122461 0.161704 0 0 -1.19615 0 0 0 0 0 0 0.01 
141 1 15 -0.0104758 -0.0692281 0.251912 0 0 -1.19615 0 0 0 0 0 0 0.01 
142 1 15 -0.0104758 -0.0692281 0.260912 0 0 -1.19615 0 0 0 0 0 0 0.01 
143 1 15 -0.0104758 -0.0692281 0.269912 0 0 -1.19615 0 0 0 0 0 0 0.01 
144 1 15 -0.0104758 -0.0692281 0.278912 0 0 -1.19615 0 0 0 0 0 0 0.01 
145 1 15 -0.0104758 -0.0692281 0.287912 0 0 -1.19615 0 0 0 0 0 0 0.01 
146 1 15 -0.0104758 -0.0692281 0.296912 0 0 -1.19615 0 0 0 0 0 0 0.01 
147 1 15 -0.0104758 -0.0692281 0.305912 0 0 -1.19615 0 0 0 0 0 0 0.01 
148 1 15 -0.0104758 -0.0692281 0.314912 0 0 -1.19615 0 0 0 0 0 0 0.01 
149 1 15 -0.0104758 -0.0692281 0.323912 0 0 -1.19615 0 0 0 0 0 0 0.01 
150 1 15 -0.0104758 -0.0692281 0.332912 0 0 -1.19615 0 0 0 0 0 0 0.01 
151 1 16 -0.0407462 0.176734 0.185395 0 0 -1.19615 0 0 0 0 0 0 0.01 
152 1 16 -0.0407462 0.176734 0.194395 0 0 -1.19615 0 0 0 0 0 0 0.01 
153 1 16 -0.0407462 0.176734 0.203395 0 0 -1.19615 0 0 0 0 0 0 0.01 
154 1 16 -0.0407462 0.176734 0.212395 0 0 -1.19615 0 0 0 0 0 0 0.01 
155 1 16 -0.0407462 0.176734 0.221395 0 0 -1.19615 0 0 0 0 0 0 0.01 
156 1 16 -0.0407462 0.176734 0.230395 0 0 -1.19615 0 0 0 0 0 0 0.01 
157 1 16 -0.0407462 0.176734 0.239395 0 0 -1.19615 0 0 0 0 0 0 0.01 
158 1 16 -0.0407462 0.176734 0.248395 0 0 -1.19615 0 0 0 0 0 0 0.01 
159 1 16 -0.0407462 0.176734 0.257395 0 0 -1.19615 0 0 0 0 0 0 0.01 
160 1 16 -0.0407462 0.176734 0.266395 0 0 -1.19615 0 0 0 0 0 0 0.01 
161 1 17 0.0731894 0.0923845 0.0855865 0 0 -1.19615 0 0 0 0 0 0 0.01 
162 1 17 0.0731894 0.0923845 0.0945865 0 0 -1.19615 0 0 0 0 0 0 0.01 
163 1 17 0.0731894 0.0923845 0.103586 0 0 -1.19615 0 0 0 0 0 0 0.01 
164 1 17 0.0731894 0.0923845 0.112586 0 0 -1.19615 0 0 0 0 0 0 0.01 
165 1 17 0.0731894 0.0923845 0.121586 0 0 -1.19615 0 0 0 0 0 0 0.01 
166 1 17 0.0731894 0.0923845 0.130586 0 0 -1.19615 0 0 0 0 0 0 0.01 
167 1 17 0.0731894 0.0923845 0.139586 0 0 -1.19615 0 0 0 0 0 0 0.01 
168 1 17 0.0731894 0.0923845 0.148586 0 0 -1.19615 0 0 0 0 0 0 0.01 
169 1 17 0.0731894 0.0923845 0.157586 0 0 -1.19615 0 0 0 0 0 0 0.01 
170 1 17 0.0731894 0.0923845 0.166586 0 0 -1.19615 0 0 0 0 0 0 0.01 
171 1 18 -0.23779 -0.0339416 0.288055 0 0 -1.19615 0 0 0 0 0 0 0.01 
172 1 18 -0.23779 -0.0339416 0.297055 0 0 -1.19615 0 0 0 0 0 0 0.01 
173 1 18 -0.23779 -0.0339416 0.306055 0 0 -1.19615 0 0 0 0 0 0 0.01 
174 1 18 -0.23779 -0.0339416 0.315055 0 0 -1.19615 0 0 0 0 0 0 0.01 
175 1 18 -0.23779 -0.0339416 0.324055 0 0 -1.19615 0 0 0 0 0 0 0.01 
176 1 18 -0.23779 -0.0339416 0.333055 0 0 -1.19615 0 0 0 0 0 0 0.01 
177 1 18 -0.23779 -0.0339416 0.342055 0 0 -1.19615 0 0 0 0 0 0 0.01 
178 1 18 -0.23779 -0.0339416 0.351055 0 0 -1.19615 0 0 0 0 0 0 0.01 
179 1 18 -0.23779 -0.0339416 0.360055 0 0 -1.19615 0 0 0 0 0 0 0.01 
180 1 18 -0.23779 -0.0339416 0.369055 0 0 -1.19615 0 0 0 0 0 0 0.01 
181 1 19 0.00334189 0.165527 0.265306 0 0 -1.19615 0 0 0 0 0 0 0.01 
182 1 19 0.00334189 0.165527 0.274306 0 0 -1.19615 0 0 0 0 0 0 0.01 
183 1 19 0.00334189 0.165527 0.283306 0 0 -1.19615 0 0 0 0 0 0 0.01 
184 1 19 0.00334189 0.165527 0.292306 0 0 -1.19615 0 0 0 0 0 0 0.01 
185 1 19 0.00334189 0.165527 0.301306 0 0 -1.19615 0 0 0 0 0 0 0.01 
186 1 19 0.00334189 0.165527 0.310306 0 0 -1.19615 0 0 0 0 0 0 0.01 
187 1 19 0.00334189 0.165527 0.319306 0 0 -1.19615 0 0 0 0 0 0 0.01 
188 1 19 0.00334189 0.165527 0.328306 0 0 -1.19615 0 0 0 0 0 0 0.01 
189 1 19 0.00334189 0.165527 0.337306 0 0 -1.19615 0 0 0 0 0 0 0.01 
190 1 19 0.00334189 0.165527 0.346306 0 0 -1.19615 0 0 0 0 0 0 0.01 
191 1 20 -0.00784267 0.186597 0.0427385 0 0 -1.19615 0 0 0 0 0 0 0.01 
192 1 20 -0.00784267 0.186597 0.0517385 0 0 -1.19615 0 0 0 0 0 0 0.01 
193 1 20 -0.00784267 0.186597 0.0607385 0 0 -1.19615 0 0 0 0 0 0 0.01 
194 1 20 -0.00784267 0.186597 0.0697385 0 0 -1.19615 0 0 0 0 0 0 0.01 
195 1 20 -0.00784267 0.186597 0.0787385 0 0 -1.19615 0 0 0 0 0 0 0.01 
196 1 20 -0.00784267 0.186597 0.0877385 0 0 -1.19615 0 0 0 0 0 0 0.01 
197 1 20 -0.00784267 0.186597 0.0967385 0 0 -1.19615 0 0 0 0 0 0 0.01 
198 1 20 -0.00784267 0.186597 0.105739 0 0 -1.19615 0 0 0 0 0 0 0.01 
199 1 20 -0.00784267 0.186597 0.114739 0 0 -1.19615 0 0 0 0 0 0 0.01 
200 1 20 -0.00784267 0.186597 0.123739 0 0 -1.19615 0 0 0 0 0 0 0.01 
201 1 21 0.0195457 0.00369696 0.043202 0 0 -1.19615 0 0 0 0 0 0 0.01 
202 1 21 0.0195457 0.00369696 0.052202 0 0 -1.19615 0 0 0 0 0 0 0.01 
203 1 21 0.0195457 0.00369696 0.061202 0 0 -1.19615 0 0 0 0 0 0 0.01 
204 1 21 0.0195457 0.00369696 0.070202 0 0 -1.19615 0 0 0 0 0 0 0.01 
205 1 21 0.0195457 0.00369696 0.079202 0 0 -1.19615 0 0 0 0 0 0 0.01 
206 1 21 0.0195457 0.00369696 0.088202 0 0 -1.19615 0 0 0 0 0 0 0.01 
207 1 21 0.0195457 0.00369696 0.097202 0 0 -1.19615 0 0 0 0 0 0 0.01 
208 1 21 0.0195457 0.00369696 0.106202 0 0 -1.19615 0 0 0 0 0 0 0.01 
209 1 21 0.0195457 0.00369696 0.115202 0 0 -1.19615 0 0 0 0 0 0 0.01 
210 1 21 0.0195457 0.00369696 0.124202 0 0 -1.19615 0 0 0 0 0 0 0.01 
211 1 22 0.00289755 0.197355 0.225312 0 0 -1.19615 0 0 0 0 0 0 0.01 
212 1 22 0.00289755 0.197355 0.234312 0 0 -1.19615 0 0 0 0 0 0 0.01 
213 1 22 0.00289755 0.197355 0.243312 0 0 -1.19615 0 0 0 0 0 0 0.01 
214 1 22 0.00289755 0.197355 0.252312 0 0 -1.19615 0 0 0 0 0 0 0.01 
215 1 22 0.00289755 0.197355 0.261312 0 0 -1.19615 0 0 0 0 0 0 0.01 
216 1 22 0.00289755 0.197355 0.270312 0 0 -1.19615 0 0 0 0 0 0 0.01 
217 1 22 0.00289755 0.197355 0.279312 0 0 -1.19615 0 0 0 0 0 0 0.01 
218 1 22 0.00289755 0.197355 0.288312 0 0 -1.19615 0 0 0 0 0 0 0.01 
219 1 22 0.00289755 0.197355 0.297312 0 0 -1.19615 0 0 0 0 0 0 0.01 
220 1 22 0.00289755 0.197355 0.306312 0 0 -1.19615 0 0 0 0 0 0 0.01 
221 1 23 0.214349 0.0539113 0.314844 0 0 -1.19615 0 0 0 0 0 0 0.01 
222 1 23 0.214349 0.0539113 0.323844 0 0 -1.19615 0 0 0 0 0 0 0.01 
223 1 23 0.214349 0.0539113 0.332844 0 0 -1.19615 0 0 0 0 0 0 0.01 
224 1 23 0.214349 0.0539113 0.341844 0 0 -1.19615 0 0 0 0 0 0 0.01 
225 1 23 0.214349 0.0539113 0.350844 0 0 -1.19615 0 0 0 0 0 0 0.01 
226 1 23 0.214349 0.0539113 0.359844 0 0 -1.19615 0 0 0 0 0 0 0.01 
227 1 23 0.214349 0.0539113 0.368844 0 0 -1.19615 0 0 0 0 0 0 0.01 
228 1 23 0.214349 0.0539113 0.377844 0 0 -1.19615 0 0 0 0 0 0 0.01 
229 1 23 0.214349 0.0539113 0.386844 0 0 -1.19615 0 0 0 0 0 0 0.01 
230 1 23 0.214349 0.0539113 0.395844 0 0 -1.19615 0 0 0 0 0 0 0.01 
231 1 24 0.157258 0.0254774 0.081298 0 0 -1.19615 0 0 0 0 0 0 0.01 
232 1 24 0.157258 0.0254774 0.090298 0 0 -1.19615 0 0 0 0 0 0 0.01 
233 1 24 0.157258 0.0254774 0.099298 0 0 -1.19615 0 0 0 0 0 0 0.01 
234 1 24 0.157258 0.0254774 0.108298 0 0 -1.19615 0 0 0 0 0 0 0.01 
235 1 24 0.157258 0.0254774 0.117298 0 0 -1.19615 0 0 0 0 0 0 0.01 
236 1 24 0.157258 0.0254774 0.126298 0 0 -1.19615 0 0 0 0 0 0 0.01 
237 1 24 0.157258 0.0254774 0.135298 0 0 -1.19615 0 0 0 0 0 0 0.01 
238 1 24 0.157258 0.0254774 0.144298 0 0 -1.19615 0 0 0 0 0 0 0.01 
239 1 24 0.157258 0.0254774 0.153298 0 0 -1.19615 0 0 0 0 0 0 0.01 
240 1 24 0.157258 0.0254774 0.162298 0 0 -1.19615 0 0 0 0 0 0 0.01 
241 1 25 0.134963 -0.174125 0.252668 0 0 -1.19615 0 0 0 0 0 0 0.01 
242 1 25 0.134963 -0.174125 0.261668 0 0 -1.19615 0 0 0 0 0 0 0.01 
243 1 25 0.134963 -0.174125 0.270668 0 0 -1.19615 0 0 0 0 0 0 0.01 
244 1 25 0.134963 -0.174125 0.279668 0 0 -1.19615 0 0 0 0 0 0 0.01 
245 1 25 0.134963 -0.174125 0.288668 0 0 -1.19615 0 0 0 0 0 0 0.01 
246 1 25 0.134963 -0.174125 0.297668 0 0 -1.19615 0 0 0 0 0 0 0.01 
247 1 25 0.134963 -0.174125 0.306668 0 0 -1.19615 0 0 0 0 0 0 0.01 
248 1 25 0.134963 -0.174125 0.315668 0 0 -1.19615 0 0 0 0 0 0 0.01 
249 1 25 0.134963 -0.174125 0.324668 0 0 -1.19615 0 0 0 0 0 0 0.01 
250 1 25 0.134963 -0.174125 0.333668 0 0 -1.19615 0 0 0 0 0 0 0.01 
251 1 26 -0.00920263 -0.17024 0.126341 0 0 -1.19615 0 0 0 0 0 0 0.01 
252 1 26 -0.00920263 -0.17024 0.135341 0 0 -1.19615 0 0 0 0 0 0 0.01 
253 1 26 -0.00920263 -0.17024 0.144341 0 0 -1.19615 0 0 0 0 0 0 0.01 
254 1 26 -0.00920263 -0.17024 0.153341 0 0 -1.19615 0 0 0 0 0 0 0.01 
255 1 26 -0.00920263 -0.17024 0.162341 0 0 -1.19615 0 0 0 0 0 0 0.01 
256 1 26 -0.00920263 -0.17024 0.171341 0 0 -1.19615 0 0 0 0 0 0 0.01 
257 1 26 -0.00920263 -0.17024 0.180341 0 0 -1.19615 0 0 0 0 0 0 0.01 
258 1 26 -0.00920263 -0.17024 0.189341 0 0 -1.19615 0 0 0 0 0 0 0.01 
259 1 26 -0.00920263 -0.17024 0.198341 0 0 -1.19615 0 0 0 0 0 0 0.01 
260 1 26 -0.00920263 -0.17024 0.207341 0 0 -1.19615 0 0 0 0 0 0 0.01 
261 1 27 -0.145674 0.150591 0.249858 0 0 -1.19615 0 0 0 0 0 0 0.01 
262 1 27 -0.145674 0.150591 0.258858 0 0 -1.19615 0 0 0 0 0 0 0.01 
263 1 27 -0.145674 0.150591 0.267858 0 0 -1.19615 0 0 0 0 0 0 0.01 
264 1 27 -0.145674 0.150591 0.276858 0 0 -1.19615 0 0 0 0 0 0 0.01 
265 1 27 -0.145674 0.150591 0.285858 0 0 -1.19615 0 0 0 0 0 0 0.01 
266 1 27 -0.145674 0.150591 0.294858 0 0 -1.19615 0 0 0 0 0 0 0.01 
267 1 27 -0.145674 0.150591 0.303858 0 0 -1.19615 0 0 0 0 0 0 0.01 
268 1 27 -0.145674 0.150591 0.312858 0 0 -1.19615 0 0 0 0 0 0 0.01 
269 1 27 -0.145674 0.150591 0.321858 0 0 -1.19615 0 0 0 0 0 0 0.01 
270 1 27 -0.145674 0.150591 0.330858 0 0 -1.19615 0 0 0 0 0 0 0.01 
271 1 28 0.0144186 -0.169101 0.210421 0 0 -1.19615 0 0 0 0 0 0 0.01 
272 1 28 0.0144186 -0.169101 0.219421 0 0 -1.19615 0 0 0 0 0 0 0.01 
273 1 28 0.0144186 -0.169101 0.228421 0 0 -1.19615 0 0 0 0 0 0 0.01 
274 1 28 0.0144186 -0.169101 0.237421 0 0 -1.19615 0 0 0 0 0 0 0.01 
275 1 28 0.0144186 -0.169101 0.246421 0 0 -1.19615 0 0 0 0 0 0 0.01 
276 1 28 0.0144186 -0.169101 0.255421 0 0 -1.19615 0 0 0 0 0 0 0.01 
277 1 28 0.0144186 -0.169101 0.264421 0 0 -1.19615 0 0 0 0 0 0 0.01 
278 1 28 0.0144186 -0.169101 0.273421 0 0 -1.19615 0 0 0 0 0 0 0.01 
279 1 28 0.0144186 -0.169101 0.282421 0 0 -1.19615 0 0 0 0 0 0 0.01 
280 1 28 0.0144186 -0.169101 0.291421 0 0 -1.19615 0 0 0 0 0 0 0.01 
281 1 29 0.0770886 0.126327 0.0690817 0 0 -1.19615 0 0 0 0 0 0 0.01 
282 1 29 0.0770886 0.126327 0.0780817 0 0 -1.19615 0 0 0 0 0 0 0.01 
283 1 29 0.0770886 0.126327 0.0870817 0 0 -1.19615 0 0 0 0 0 0 0.01 
284 1 29 0.0770886 0.126327 0.0960817 0 0 -1.19615 0 0 0 0 0 0 0.01 
285 1 29 0.0770886 0.126327 0.105082 0 0 -1.19615 0 0 0 0 0 0 0.01 
286 1 29 0.0770886 0.126327 0.114082 0 0 -1.19615 0 0 0 0 0 0 0.01 
287 1 29 0.0770886 0.126327 0.123082 0 0 -1.19615 0 0 0 0 0 0 0.01 
288 1 29 0.0770886 0.126327 0.132082 0 0 -1.19615 0 0 0 0 0 0 0.01 
289 1 29 0.0770886 0.126327 0.141082 0 0 -1.19615 0 0 0 0 0 0 0.01 
290 1 29 0.0770886 0.126327 0.150082 0 0 -1.19615 0 0 0 0 0 0 0.01 
291 1 30 -0.0622987 -0.0566083 0.312501 0 0 -1.19615 0 0 0 0 0 0 0.01 
292 1 30 -0.0622987 -0.0566083 0.321501 0 0 -1.19615 0 0 0 0 0 0 0.01 
293 1 30 -0.0622987 -0.0566083 0.330501 0 0 -1.19615 0 0 0 0 0 0 0.01 
294 1 30 -0.0622987 -0.0566083 0.339501 0 0 -1.19615 0 0 0 0 0 0 0.01 
295 1 30 -0.0622987 -0.0566083 0.348501 0 0 -1.19615 0 0 0 0 0 0 0.01 
296 1 30 -0.0622987 -0.0566083 0.357501 0 0 -1.19615 0 0 0 0 0 0 0.01 
297 1 30 -0.0622987 -0.0566083 0.366501 0 0 -1.19615 0 0 0 0 0 0 0.01 
298 1 30 -0.0622987 -0.0566083 0.375501 0 0 -1.19615 0 0 0 0 0 0 0.01 
299 1 30 -0.0622987 -0.0566083 0.384501 0 0 -1.19615 0 0 0 0 0 0 0.01 
300 1 30 -0.0622987 -0.0566083 0.393501 0 0 -1.19615 0 0 0 0 0 0 0.01 
301 1 31 0.0111005 0.0641788 0.0545376 0 0 -1.19615 0 0 0 0 0 0 0.01 
302 1 31 0.0111005 0.0641788 0.0635376 0 0 -1.19615 0 0 0 0 0 0 0.01 
303 1 31 0.0111005 0.0641788 0.0725376 0 0 -1.19615 0 0 0 0 0 0 0.01 
304 1 31 0.0111005 0.0641788 0.0815376 0 0 -1.19615 0 0 0 0 0 0 0.01 
305 1 31 0.0111005 0.0641788 0.0905376 0 0 -1.19615 0 0 0 0 0 0 0.01 
306 1 31 0.0111005 0.0641788 0.0995376 0 0 -1.19615 0 0 0 0 0 0 0.01 
307 1 31 0.0111005 0.0641788 0.108538 0 0 -1.19615 0 0 0 0 0 0 0.01 
308 1 31 0.0111005 0.0641788 0.117538 0 0 -1.19615 0 0 0 0 0 0 0.01 
309 1 31 0.0111005 0.0641788 0.126538 0 0 -1.19615 0 0 0 0 0 0 0.01 
310 1 31 0.0111005 0.0641788 0.135538 0 0 -1.19615 0 0 0 0 0 0 0.01 
311 1 32 0.0320384 -0.0315173 0.135747 0 0 -1.19615 0 0 0 0 0 0 0.01 
312 1 32 0.0320384 -0.0315173 0.144747 0 0 -1.19615 0 0 0 0 0 0 0.01 
313 1 32 0.0320384 -0.0315173 0.153747 0 0 -1.19615 0 0 0 0 0 0 0.01 
314 1 32 0.0320384 -0.0315173 0.162747 0 0 -1.19615 0 0 0 0 0 0 0.01 
315 1 32 0.0320384 -0.0315173 0.171747 0 0 -1.19615 0 0 0 0 0 0 0.01 
316 1 32 0.0320384 -0.0315173 0.180747 0 0 -1.19615 0 0 0 0 0 0 0.01 
317 1 32 0.0320384 -0.0315173 0.189747 0 0 -1.19615 0 0 0 0 0 0 0.01 
318 1 32 0.0320384 -0.0315173 0.198747 0 0 -1.19615 0 0 0 0 0 0 0.01 
319 1 32 0.0320384 -0.0315173 0.207747 0 0 -1.19615 0 0 0 0 0 0 0.01 
320 1 32 0.0320384 -0.0315173 0.216747 0 0 -1.19615 0 0 0 0 0 0 0.01 
321 1 33 -0.164367 -0.0225208 0.258003 0 0 -1.19615 0 0 0 0 0 0 0.01 
322 1 33 -0.164367 -0.0225208 0.267003 0 0 -1.19615 0 0 0 0 0 0 0.01 
323 1 33 -0.164367 -0.0225208 0.276003 0 0 -1.19615 0 0 0 0 0 0 0.01 
324 1 33 -0.164367 -0.0225208 0.285003 0 0 -1.19615 0 0 0 0 0 0 0.01 
325 1 33 -0.164367 -0.0225208 0.294003 0 0 -1.19615 0 0 0 0 0 0 0.01 
326 1 33 -0.164367 -0.0225208 0.303003 0 0 -1.19615 0 0 0 0 0 0 0.01 
327 1 33 -0.164367 -0.0225208 0.312003 0 0 -1.19615 0 0 0 0 0 0 0.01 
328 1 33 -0.164367 -0.0225208 0.321003 0 0 -1.19615 0 0 0 0 0 0 0.01 
329 1 33 -0.164367 -0.0225208 0.330003 0 0 -1.19615 0 0 0 0 0 0 0.01 
330 1 33 -0.164367 -0.0225208 0.339003 0 0 -1.19615 0 0 0 0 0 0 0.01 
331 1 34 -0.0753724 0.213735 0.108607 0 0 -1.19615 0 0 0 0 0 0 0.01 
332 1 34 -0.0753724 0.213735 0.117607 0 0 -1.19615 0 0 0 0 0 0 0.01 
333 1 34 -0.0753724 0.213735 0.126607 0 0 -1.19615 0 0 0 0 0 0 0.01 
334 1 34 -0.0753724 0.213735 0.135607 0 0 -1.19615 0 0 0 0 0 0 0.01 
335 1 34 -0.0753724 0.213735 0.144607 0 0 -1.19615 0 0 0 0 0 0 0.01 
336 1 34 -0.0753724 0.213735 0.153607 0 0 -1.19615 0 0 0 0 0 0 0.01 
337 1 34 -0.0753724 0.213735 0.162607 0 0 -1.19615 0 0 0 0 0 0 0.01 
338 1 34 -0.0753724 0.213735 0.171607 0 0 -1.19615 0 0 0 0 0 0 0.01 
339 1 34 -0.0753724 0.213735 0.180607 0 0 -1.19615 0 0 0 0 0 0 0.01 
340 1 34 -0.0753724 0.213735 0.189607 0 0 -1.19615 0 0 0 0 0 0 0.01 
341 1 35 0.107324 -0.21107 0.28867 0 0 -1.19615 0 0 0 0 0 0 0.01 
342 1 35 0.107324 -0.21107 0.29767 0 0 -1.19615 0 0 0 0 0 0 0.01 
343 1 35 0.107324 -0.21107 0.30667 0 0 -1.19615 0 0 0 0 0 0 0.01 
344 1 35 0.107324 -0.21107 0.31567 0 0 -1.19615 0 0 0 0 0 0 0.01 
345 1 35 0.107324 -0.21107 0.32467 0 0 -1.19615 0 0 0 0 0 0 0.01 
346 1 35 0.107324 -0.21107 0.33367 0 0 -1.19615 0 0 0 0 0 0 0.01 
347 1 35 0.107324 -0.21107 0.34267 0 0 -1.19615 0 0 0 0 0 0 0.01 
348 1 35 0.107324 -0.21107 0.35167 0 0 -1.19615 0 0 0 0 0 0 0.01 
349 1 35 0.107324 -0.21107 0.36067 0 0 -1.19615 0 0 0 0 0 0 0.01 
350 1 35 0.107324 -0.21107 0.36967 0 0 -1.19615 0 0 0 0 0 0 0.01 
351 1 36 -0.0369915 -0.217979 0.221809 0 0 -1.19615 0 0 0 0 0 0 0.01 
352 1 36 -0.0369915 -0.217979 0.230809 0 0 -1.19615 0 0 0 0 0 0 0.01 
353 1 36 -0.0369915 -0.217979 0.239809 0 0 -1.19615 0 0 0 0 0 0 0.01 
354 1 36 -0.0369915 -0.217979 0.248809 0 0 -1.19615 0 0 0 0 0 0 0.01 
355 1 36 -0.0369915 -0.217979 0.257809 0 0 -1.19615 0 0 0 0 0 0 0.01 
356 1 36 -0.0369915 -0.217979 0.266809 0 0 -1.19615 0 0 0 0 0 0 0.01 
357 1 36 -0.0369915 -0.217979 0.275809 0 0 -1.19615 0 0 0 0 0 0 0.01 
358 1 36 -0.0369915 -0.217979 0.284809 0 0 -1.19615 0 0 0 0 0 0 0.01 
359 1 36 -0.0369915 -0.217979 0.293809 0 0 -1.19615 0 0 0 0 0 0 0.01 
360 1 36 -0.0369915 -0.217979 0.302809 0 0 -1.19615 0 0 0 0 0 0 0.01 
361 1 37 0.0719128 0.13673 0.271545 0 0 -1.19615 0 0 0 0 0 0 0.01 
362 1 37 0.0719128 0.13673 0.280545 0 0 -1.19615 0 0 0 0 0 0 0.01 
363 1 37 0.0719128 0.13673 0.289545 0 0 -1.19615 0 0 0 0 0 0 0.01 
364 1 37 0.0719128 0.13673 0.298545 0 0 -1.19615 0 0 0 0 0 0 0.01 
365 1 37 0.0719128 0.13673 0.307545 0 0 -1.19615 0 0 0 0 0 0 0.01 
366 1 37 0.0719128 0.13673 0.316545 0 0 -1.19615 0 0 0 0 0 0 0.01 
367 1 37 0.0719128 0.13673 0.325545 0 0 -1.19615 0 0 0 0 0 0 0.01 
368 1 37 0.0719128 0.13673 0.334545 0 0 -1.19615 0 0 0 0 0 0 0.01 
369 1 37 0.0719128 0.13673 0.343545 0 0 -1.19615 0 0 0 0 0 0 0.01 
370 1 37 0.0719128 0.13673 0.352545 0 0 -1.19615 0 0 0 0 0 0 0.01 
371 1 38 -0.156963 -0.0782603 0.0700923 0 0 -1.19615 0 0 0 0 0 0 0.01 
372 1 38 -0.156963 -0.0782603 0.0790923 0 0 -1.19615 0 0 0 0 0 0 0.01 
373 1 38 -0.156963 -0.0782603 0.0880923 0 0 -1.19615 0 0 0 0 0 0 0.01 
374 1 38 -0.156963 -0.0782603 0.0970923 0 0 -1.19615 0 0 0 0 0 0 0.01 
375 1 38 -0.156963 -0.0782603 0.106092 0 0 -1.19615 0 0 0 0 0 0 0.01 
376 1 38 -0.156963 -0.0782603 0.115092 0 0 -1.19615 0 0 0 0 0 0 0.01 
377 1 38 -0.156963 -0.0782603 0.124092 0 0 -1.19615 0 0 0 0 0 0 0.01 
378 1 38 -0.156963 -0.0782603 0.133092 0 0 -1.19615 0 0 0 0 0 0 0.01 
379 1 38 -0.156963 -0.0782603 0.142092 0 0 -1.19615 0 0 0 0 0 0 0.01 
380 1 38 -0.156963 -0.0782603 0.151092 0 0 -1.19615 0 0 0 0 0 0 0.01 
381 1 39 -0.132731 0.194202 0.230607 0 0 -1.19615 0 0 0 0 0 0 0.01 
382 1 39 -0.132731 0.194202 0.239607 0 0 -1.19615 0 0 0 0 0 0 0.01 
383 1 39 -0.132731 0.194202 0.248607 0 0 -1.19615 0 0 0 0 0 0 0.01 
384 1 39 -0.132731 0.194202 0.257607 0 0 -1.19615 0 0 0 0 0 0 0.01 
385 1 39 -0.132731 0.194202 0.266607 0 0 -1.19615 0 0 0 0 0 0 0.01 
386 1 39 -0.132731 0.194202 0.275607 0 0 -1.19615 0 0 0 0 0 0 0.01 
387 1 39 -0.132731 0.194202 0.284607 0 0 -1.19615 0 0 0 0 0 0 0.01 
388 1 39 -0.132731 0.194202 0.293607 0 0 -1.19615 0 0 0 0 0 0 0.01 
389 1 39 -0.132731 0.194202 0.302607 0 0 -1.19615 0 0 0 0 0 0 0.01 
390 1 39 -0.132731 0.194202 0.311607 0 0 -1.19615 0 0 0 0 0 0 0.01 
391 1 40 0.0157305 -0.119676 0.329809 0 0 -1.19615 0 0 0 0 0 0 0.01 
392 1 40 0.0157305 -0.119676 0.338809 0 0 -1.19615 0 0 0 0 0 0 0.01 
393 1 40 0.0157305 -0.119676 0.347809 0 0 -1.19615 0 0 0 0 0 0 0.01 
394 1 40 0.0157305 -0.119676 0.356809 0 0 -1.19615 0 0 0 0 0 0 0.01 
395 1 40 0.0157305 -0.119676 0.365809 0 0 -1.19615 0 0 0 0 0 0 0.01 
396 1 40 0.0157305 -0.119676 0.374809 0 0 -1.19615 0 0 0 0 0 0 0.01 
397 1 40 0.0157305 -0.119676 0.383809 0 0 -1.19615 0 0 0 0 0 0 0.01 
398 1 40 0.0157305 -0.119676 0.392809 0 0 -1.19615 0 0 0 0 0 0 0.01 
399 1 40 0.0157305 -0.119676 0.401809 0 0 -1.19615 0 0 0 0 0 0 0.01 
400 1 40 0.0157305 -0.119676 0.410809 0 0 -1.19615 0 0 0 0 0 0 0.01 
401 1 41 -0.158558 0.109248 0.0433671 0 0 -1.19615 0 0 0 0 0 0 0.01 
402 1 41 -0.158558 0.109248 0.0523671 0 0 -1.19615 0 0 0 0 0 0 0.01 
403 1 41 -0.158558 0.109248 0.0613671 0 0 -1.19615 0 0 0 0 0 0 0.01 
404 1 41 -0.158558 0.109248 0.0703671 0 0 -1.19615 0 0 0 0 0 0 0.01 
405 1 41 -0.158558 0.109248 0.0793671 0 0 -1.19615 0 0 0 0 0 0 0.01 
406 1 41 -0.158558 0.109248 0.0883671 0 0 -1.19615 0 0 0 0 0 0 0.01 
407 1 41 -0.158558 0.109248 0.0973671 0 0 -1.19615 0 0 0 0 0 0 0.01 
408 1 41 -0.158558 0.109248 0.106367 0 0 -1.19615 0 0 0 0 0 0 0.01 
409 1 41 -0.158558 0.109248 0.115367 0 0 -1.19615 0 0 0 0 0 0 0.01 
410 1 41 -0.158558 0.109248 0.124367 0 0 -1.19615 0 0 0 0 0 0 0.01 
411 1 42 0.127323 -0.0832319 0.335571 0 0 -1.19615 0 0 0 0 0 0 0.01 
412 1 42 0.127323 -0.0832319 0.344571 0 0 -1.19615 0 0 0 0 0 0 0.01 
413 1 42 0.127323 -0.0832319 0.353571 0 0 -1.19615 0 0 0 0 0 0 0.01 
414 1 42 0.127323 -0.0832319 0.362571 0 0 -1.19615 0 0 0 0 0 0 0.01 
415 1 42 0.127323 -0.0832319 0.371571 0 0 -1.19615 0 0 0 0 0 0 0.01 
416 1 42 0.127323 -0.0832319 0.380571 0 0 -1.19615 0 0 0 0 0 0 0.01 
417 1 42 0.127323 -0.0832319 0.389571 0 0 -1.19615 0 0 0 0 0 0 0.01 
418 1 42 0.127323 -0.0832319 0.398571 0 0 -1.19615 0 0 0 0 0 0 0.01 
419 1 42 0.127323 -0.0832319 0.407571 0 0 -1.19615 0 0 0 0 0 0 0.01 
420 1 42 0.127323 -0.0832319 0.416571 0 0 -1.19615 0 0 0 0 0 0 0.01 
421 1 43 0.136585 0.0746672 0.2211 0 0 -1.19615 0 0 0 0 0 0 0.01 
422 1 43 0.136585 0.0746672 0.2301 0 0 -1.19615 0 0 0 0 0 0 0.01 
423 1 43 0.136585 0.0746672 0.2391 0 0 -1.19615 0 0 0 0 0 0 0.01 
424 1 43 0.136585 0.0746672 0.2481 0 0 -1.19615 0 0 0 0 0 0 0.01 
425 1 43 0.136585 0.0746672 0.2571 0 0 -1.19615 0 0 0 0 0 0 0.01 
426 1 43 0.136585 0.0746672 0.2661 0 0 -1.19615 0 0 0 0 0 0 0.01 
427 1 43 0.136585 0.0746672 0.2751 0 0 -1.19615 0 0 0 0 0 0 0.01 
428 1 43 0.136585 0.0746672 0.2841 0 0 -1.19615 0 0 0 0 0 0 0.01 