ITEM: TIMESTEP
37000
ITEM: NUMBER OF ATOMS
6300
ITEM: BOX BOUNDS mm mm mm
-0.372468 0.377046
-0.364687 0.383998
0 0.5
ITEM: ATOMS id type mol x y z vx vy vz fx fy fz omegax omegay omegaz radius 
1 1 1 -0.149285 -0.112755 0.0813837 -0.344626 -0.0283414 -0.0547402 -0.11747 -0.211184 -0.205549 8.43146 4.47829 -2.83764 0.01 
2 1 1 -0.149043 -0.120068 0.0866243 -0.341909 -0.073213 -0.117481 0.331378 0.138793 0.61729 8.43146 4.47829 -2.83764 0.01 
3 1 1 -0.148801 -0.127381 0.0918649 -0.339191 -0.118085 -0.180221 -0.178684 -0.0204156 0.207692 8.43146 4.47829 -2.83764 0.01 
4 1 1 -0.14856 -0.134694 0.0971055 -0.336474 -0.162956 -0.242962 -0.00708464 -0.0067649 -0.18539 8.43146 4.47829 -2.83764 0.01 
5 1 1 -0.148318 -0.142007 0.102346 -0.333756 -0.207828 -0.305702 0 0 0 8.43146 4.47829 -2.83764 0.01 
6 1 1 -0.148076 -0.149319 0.107587 -0.331039 -0.252699 -0.368443 0 0 0 8.43146 4.47829 -2.83764 0.01 
7 1 1 -0.147835 -0.156632 0.112827 -0.328321 -0.297571 -0.431183 0 0 0 8.43146 4.47829 -2.83764 0.01 
8 1 1 -0.147593 -0.163945 0.118068 -0.325603 -0.342443 -0.493924 0 0 0 8.43146 4.47829 -2.83764 0.01 
9 1 1 -0.147351 -0.171258 0.123308 -0.322886 -0.387314 -0.556664 0 0 0 8.43146 4.47829 -2.83764 0.01 
10 1 1 -0.147109 -0.178571 0.128549 -0.320168 -0.432186 -0.619405 0 0 0 8.43146 4.47829 -2.83764 0.01 
11 1 2 -0.0213296 -0.129208 0.0237531 0.00197552 0.0283804 -0.017655 -0.810768 -0.0503573 -0.449082 2.62215 -2.6206 2.12807 0.01 
12 1 2 -0.0244513 -0.131441 0.0318938 -0.0146077 0.000390866 -0.0316892 1.12456 1.26493 2.47195 2.62215 -2.6206 2.12807 0.01 
13 1 2 -0.0275731 -0.133673 0.0400346 -0.0311909 -0.0275987 -0.0457234 0 0 0 2.62215 -2.6206 2.12807 0.01 
14 1 2 -0.0306948 -0.135905 0.0481753 -0.0477741 -0.0555882 -0.0597576 0 0 0 2.62215 -2.6206 2.12807 0.01 
15 1 2 -0.0338165 -0.138138 0.0563161 -0.0643573 -0.0835777 -0.0737918 -0.643329 -1.38283 -1.63531 2.62215 -2.6206 2.12807 0.01 
16 1 2 -0.0369383 -0.14037 0.0644568 -0.0809405 -0.111567 -0.087826 0.29609 -0.198784 -0.215673 2.62215 -2.6206 2.12807 0.01 
17 1 2 -0.04006 -0.142602 0.0725976 -0.0975237 -0.139557 -0.10186 0.0115903 0.112013 -0.00223207 2.62215 -2.6206 2.12807 0.01 
18 1 2 -0.0431818 -0.144834 0.0807383 -0.114107 -0.167546 -0.115894 -0.160661 0.191795 -0.099914 2.62215 -2.6206 2.12807 0.01 
19 1 2 -0.0463035 -0.147067 0.088879 -0.13069 -0.195536 -0.129929 0 0 0 2.62215 -2.6206 2.12807 0.01 
20 1 2 -0.0494252 -0.149299 0.0970198 -0.147273 -0.223525 -0.143963 0.198537 0.230161 0.344164 2.62215 -2.6206 2.12807 0.01 
21 1 3 -0.0279303 -0.0422926 0.0104767 -0.018932 0.0673225 0.0889473 0 0 0 -4.26509 -9.67314 8.6002 0.01 
22 1 3 -0.0320346 -0.047825 0.0162687 -0.027378 0.0567283 0.0728427 0 0 0 -4.26509 -9.67314 8.6002 0.01 
23 1 3 -0.0361389 -0.0533575 0.0220607 -0.035824 0.046134 0.0567381 -0.0301796 0.0117441 -0.00712887 -4.26509 -9.67314 8.6002 0.01 
24 1 3 -0.0402431 -0.05889 0.0278526 -0.04427 0.0355397 0.0406335 0 0 0 -4.26509 -9.67314 8.6002 0.01 
25 1 3 -0.0443474 -0.0644225 0.0336446 -0.0527161 0.0249455 0.0245289 0 0 0 -4.26509 -9.67314 8.6002 0.01 
26 1 3 -0.0484516 -0.0699549 0.0394365 -0.0611621 0.0143512 0.00842425 0 0 0 -4.26509 -9.67314 8.6002 0.01 
27 1 3 -0.0525559 -0.0754874 0.0452285 -0.0696081 0.00375691 -0.00768035 -0.24861 0.287147 1.0674 -4.26509 -9.67314 8.6002 0.01 
28 1 3 -0.0566602 -0.0810199 0.0510205 -0.0780541 -0.00683736 -0.023785 0 0 0 -4.26509 -9.67314 8.6002 0.01 
29 1 3 -0.0607644 -0.0865524 0.0568124 -0.0865001 -0.0174316 -0.0398896 0 0 0 -4.26509 -9.67314 8.6002 0.01 
30 1 3 -0.0648687 -0.0920848 0.0626044 -0.0949461 -0.0280259 -0.0559942 0.0667972 -0.173635 -0.260759 -4.26509 -9.67314 8.6002 0.01 
31 1 4 -0.0893284 0.122704 0.00990264 -0.0822336 0.0284982 0.0126305 -1.94425 2.16917 -4.35311 -0.66521 -3.09193 -1.16074 0.01 
32 1 4 -0.0922685 0.12876 0.0158765 -0.0936757 0.0358848 -0.000488222 -0.259435 0.497867 -0.364337 -0.66521 -3.09193 -1.16074 0.01 
33 1 4 -0.0952086 0.134815 0.0218504 -0.105118 0.0432714 -0.0136069 1.62247 -1.91789 5.11888 -0.66521 -3.09193 -1.16074 0.01 
34 1 4 -0.0981487 0.140871 0.0278243 -0.11656 0.050658 -0.0267257 0.819559 -1.10797 2.82955 -0.66521 -3.09193 -1.16074 0.01 
35 1 4 -0.101089 0.146926 0.0337983 -0.128002 0.0580446 -0.0398444 0.312038 -0.240888 0.574938 -0.66521 -3.09193 -1.16074 0.01 
36 1 4 -0.104029 0.152981 0.0397722 -0.139444 0.0654312 -0.0529631 0.16988 -0.0218242 0.043755 -0.66521 -3.09193 -1.16074 0.01 
37 1 4 -0.106969 0.159037 0.0457461 -0.150886 0.0728178 -0.0660818 0.173579 -0.39464 0.158033 -0.66521 -3.09193 -1.16074 0.01 
38 1 4 -0.109909 0.165092 0.05172 -0.162328 0.0802044 -0.0792005 0 0 0 -0.66521 -3.09193 -1.16074 0.01 
39 1 4 -0.112849 0.171148 0.0576939 -0.17377 0.087591 -0.0923192 -0.742294 0.446437 -2.03142 -0.66521 -3.09193 -1.16074 0.01 
40 1 4 -0.115789 0.177203 0.0636678 -0.185212 0.0949776 -0.105438 -0.150434 0.178442 -0.970422 -0.66521 -3.09193 -1.16074 0.01 
41 1 5 0.0798773 -0.135618 0.00990953 0.00107987 -0.0163773 0.00600831 -0.112808 -0.124551 0.566459 -0.0313329 1.47401 -2.09482 0.01 
42 1 5 0.0813052 -0.134892 0.0187659 0.0156537 -0.0190909 0.00388094 0 0 0 -0.0313329 1.47401 -2.09482 0.01 
43 1 5 0.082733 -0.134167 0.0276223 0.0302276 -0.0218045 0.00175356 0 0 0 -0.0313329 1.47401 -2.09482 0.01 
44 1 5 0.0841609 -0.133442 0.0364786 0.0448014 -0.0245181 -0.00037382 0.286388 0.0895863 -0.168671 -0.0313329 1.47401 -2.09482 0.01 
45 1 5 0.0855887 -0.132716 0.045335 0.0593752 -0.0272317 -0.0025012 0 0 0 -0.0313329 1.47401 -2.09482 0.01 
46 1 5 0.0870165 -0.131991 0.0541913 0.0739491 -0.0299452 -0.00462858 -0.269673 -0.018576 0.160672 -0.0313329 1.47401 -2.09482 0.01 
47 1 5 0.0884444 -0.131265 0.0630477 0.0885229 -0.0326588 -0.00675595 0 0 0 -0.0313329 1.47401 -2.09482 0.01 
48 1 5 0.0898722 -0.13054 0.071904 0.103097 -0.0353724 -0.00888333 0 0 0 -0.0313329 1.47401 -2.09482 0.01 
49 1 5 0.0913001 -0.129815 0.0807604 0.117671 -0.038086 -0.0110107 0 0 0 -0.0313329 1.47401 -2.09482 0.01 
50 1 5 0.0927279 -0.129089 0.0896168 0.132244 -0.0407996 -0.0131381 -0.0174485 -0.0221004 -0.0459301 -0.0313329 1.47401 -2.09482 0.01 
51 1 6 0.192317 -0.039668 0.0223163 -0.0576163 -0.0490404 0.0105733 0 0 0 10.8848 5.62406 -1.01329 0.01 
52 1 6 0.185299 -0.0452499 0.0230786 -0.0589848 -0.0502268 -0.0107111 0.0970141 -0.17366 0.20821 10.8848 5.62406 -1.01329 0.01 
53 1 6 0.17828 -0.0508318 0.023841 -0.0603532 -0.0514132 -0.0319955 0 0 0 10.8848 5.62406 -1.01329 0.01 
54 1 6 0.171262 -0.0564137 0.0246034 -0.0617216 -0.0525995 -0.0532798 0 0 0 10.8848 5.62406 -1.01329 0.01 
55 1 6 0.164243 -0.0619955 0.0253658 -0.0630901 -0.0537859 -0.0745642 0 0 0 10.8848 5.62406 -1.01329 0.01 
56 1 6 0.157224 -0.0675774 0.0261282 -0.0644585 -0.0549723 -0.0958486 0 0 0 10.8848 5.62406 -1.01329 0.01 
57 1 6 0.150206 -0.0731593 0.0268905 -0.0658269 -0.0561587 -0.117133 0 0 0 10.8848 5.62406 -1.01329 0.01 
58 1 6 0.143187 -0.0787412 0.0276529 -0.0671954 -0.057345 -0.138417 0.316868 -0.302587 0.651782 10.8848 5.62406 -1.01329 0.01 
59 1 6 0.136168 -0.0843231 0.0284153 -0.0685638 -0.0585314 -0.159702 0 0 0 10.8848 5.62406 -1.01329 0.01 
60 1 6 0.12915 -0.089905 0.0291777 -0.0699322 -0.0597178 -0.180986 0 0 0 10.8848 5.62406 -1.01329 0.01 
61 1 7 -0.0450874 0.225984 0.0099614 -0.0899808 0.111955 -0.0047759 -0.169988 0.417721 0.0932253 -3.52627 -0.854852 3.26588 0.01 
62 1 7 -0.0436792 0.232107 0.0164057 -0.115486 0.139278 -0.0251624 0.07821 0.200264 -0.145877 -3.52627 -0.854852 3.26588 0.01 
63 1 7 -0.042271 0.23823 0.0228501 -0.140991 0.166602 -0.0455488 0.000709404 0.0787652 0.0399759 -3.52627 -0.854852 3.26588 0.01 
64 1 7 -0.0408628 0.244352 0.0292944 -0.166496 0.193925 -0.0659353 -0.365933 -0.0758374 0.264348 -3.52627 -0.854852 3.26588 0.01 
65 1 7 -0.0394546 0.250475 0.0357388 -0.192001 0.221249 -0.0863217 -0.182796 -0.0243576 0.19673 -3.52627 -0.854852 3.26588 0.01 
66 1 7 -0.0380463 0.256598 0.0421831 -0.217506 0.248572 -0.106708 0 0 0 -3.52627 -0.854852 3.26588 0.01 
67 1 7 -0.0366381 0.26272 0.0486274 -0.243011 0.275896 -0.127095 0.383891 -0.200684 -0.269669 -3.52627 -0.854852 3.26588 0.01 
68 1 7 -0.0352299 0.268843 0.0550718 -0.268516 0.30322 -0.147481 0 0 0 -3.52627 -0.854852 3.26588 0.01 
69 1 7 -0.0338217 0.274966 0.0615161 -0.294021 0.330543 -0.167868 0 0 0 -3.52627 -0.854852 3.26588 0.01 
70 1 7 -0.0324135 0.281088 0.0679605 -0.319526 0.357867 -0.188254 0 0 0 -3.52627 -0.854852 3.26588 0.01 
71 1 8 0.149083 -0.185536 0.0888442 0.21887 -0.415486 -0.285099 0.0606918 0.0746663 0.144137 4.50001 6.91842 0.375589 0.01 
72 1 8 0.157345 -0.183401 0.0917047 0.237859 -0.425255 -0.332653 0 0 0 4.50001 6.91842 0.375589 0.01 
73 1 8 0.165607 -0.181267 0.0945652 0.256847 -0.435024 -0.380208 0 0 0 4.50001 6.91842 0.375589 0.01 
74 1 8 0.173869 -0.179132 0.0974257 0.275836 -0.444794 -0.427763 0 0 0 4.50001 6.91842 0.375589 0.01 
75 1 8 0.182131 -0.176998 0.100286 0.294824 -0.454563 -0.475317 0 0 0 4.50001 6.91842 0.375589 0.01 
76 1 8 0.190393 -0.174863 0.103147 0.313812 -0.464332 -0.522872 0 0 0 4.50001 6.91842 0.375589 0.01 
77 1 8 0.198655 -0.172729 0.106007 0.332801 -0.474101 -0.570427 0 0 0 4.50001 6.91842 0.375589 0.01 
78 1 8 0.206917 -0.170594 0.108868 0.351789 -0.48387 -0.617982 0 0 0 4.50001 6.91842 0.375589 0.01 
79 1 8 0.215179 -0.168459 0.111728 0.370778 -0.493639 -0.665536 0 0 0 4.50001 6.91842 0.375589 0.01 
80 1 8 0.223442 -0.166325 0.114589 0.389766 -0.503409 -0.713091 0 0 0 4.50001 6.91842 0.375589 0.01 
81 1 9 -0.133193 0.0303201 0.0534795 0.0310354 -0.170794 -0.478237 0 0 0 -1.45915 -2.92305 3.09718 0.01 
82 1 9 -0.126842 0.0314925 0.0597481 0.00908109 -0.141978 -0.461384 0 0 0 -1.45915 -2.92305 3.09718 0.01 
83 1 9 -0.120492 0.0326648 0.0660167 -0.0128732 -0.113162 -0.444532 0 0 0 -1.45915 -2.92305 3.09718 0.01 
84 1 9 -0.114141 0.0338371 0.0722853 -0.0348276 -0.0843466 -0.427679 0 0 0 -1.45915 -2.92305 3.09718 0.01 
85 1 9 -0.10779 0.0350094 0.078554 -0.0567819 -0.0555308 -0.410827 0 0 0 -1.45915 -2.92305 3.09718 0.01 
86 1 9 -0.10144 0.0361817 0.0848226 -0.0787363 -0.026715 -0.393974 0 0 0 -1.45915 -2.92305 3.09718 0.01 
87 1 9 -0.0950893 0.037354 0.0910912 -0.100691 0.00210079 -0.377122 0 0 0 -1.45915 -2.92305 3.09718 0.01 
88 1 9 -0.0887387 0.0385264 0.0973598 -0.122645 0.0309166 -0.360269 0 0 0 -1.45915 -2.92305 3.09718 0.01 
89 1 9 -0.0823881 0.0396987 0.103628 -0.144599 0.0597324 -0.343416 0 0 0 -1.45915 -2.92305 3.09718 0.01 
90 1 9 -0.0760374 0.040871 0.109897 -0.166554 0.0885481 -0.326564 -0.214012 0.0427445 0.247617 -1.45915 -2.92305 3.09718 0.01 
91 1 10 0.0742339 0.257095 0.0893081 0.208429 0.589638 -0.384733 -0.00603437 0.0351178 0.0727934 14.4777 -12.052 -8.96019 0.01 
92 1 10 0.0673195 0.260557 0.0939131 0.18395 0.584924 -0.417945 0 0 0 14.4777 -12.052 -8.96019 0.01 
93 1 10 0.0604051 0.264019 0.098518 0.159471 0.58021 -0.451156 0 0 0 14.4777 -12.052 -8.96019 0.01 
94 1 10 0.0534906 0.267481 0.103123 0.134992 0.575496 -0.484368 0 0 0 14.4777 -12.052 -8.96019 0.01 
95 1 10 0.0465762 0.270943 0.107728 0.110513 0.570782 -0.517579 0 0 0 14.4777 -12.052 -8.96019 0.01 
96 1 10 0.0396618 0.274405 0.112333 0.0860347 0.566067 -0.550791 0 0 0 14.4777 -12.052 -8.96019 0.01 
97 1 10 0.0327473 0.277867 0.116938 0.0615559 0.561353 -0.584002 0 0 0 14.4777 -12.052 -8.96019 0.01 
98 1 10 0.0258329 0.281329 0.121543 0.0370771 0.556639 -0.617214 0.251505 -0.133511 0.331639 14.4777 -12.052 -8.96019 0.01 
99 1 10 0.0189185 0.284791 0.126148 0.0125983 0.551925 -0.650425 0 0 0 14.4777 -12.052 -8.96019 0.01 
100 1 10 0.012004 0.288253 0.130752 -0.0118804 0.547211 -0.683637 0 0 0 14.4777 -12.052 -8.96019 0.01 
101 1 11 -0.246672 -0.0877892 0.013073 -0.0591836 -0.163625 0.107448 0.706368 -0.478169 -0.360924 4.57816 -0.841858 -6.00163 0.01 
102 1 11 -0.247671 -0.0946505 0.0188111 -0.105193 -0.183903 0.075195 0 0 0 4.57816 -0.841858 -6.00163 0.01 
103 1 11 -0.248669 -0.101512 0.0245492 -0.151203 -0.204182 0.0429424 -0.91558 0.600588 2.56467 4.57816 -0.841858 -6.00163 0.01 
104 1 11 -0.249667 -0.108373 0.0302873 -0.197213 -0.224461 0.0106899 0 0 0 4.57816 -0.841858 -6.00163 0.01 
105 1 11 -0.250665 -0.115234 0.0360254 -0.243222 -0.244739 -0.0215627 -0.909854 0.362207 -0.150932 4.57816 -0.841858 -6.00163 0.01 
106 1 11 -0.251664 -0.122096 0.0417635 -0.289232 -0.265018 -0.0538152 0 0 0 4.57816 -0.841858 -6.00163 0.01 
107 1 11 -0.252662 -0.128957 0.0475016 -0.335242 -0.285296 -0.0860677 1.60159 -1.40813 -0.823572 4.57816 -0.841858 -6.00163 0.01 
108 1 11 -0.25366 -0.135818 0.0532397 -0.381252 -0.305575 -0.11832 0 0 0 4.57816 -0.841858 -6.00163 0.01 
109 1 11 -0.254659 -0.14268 0.0589779 -0.427261 -0.325854 -0.150573 0 0 0 4.57816 -0.841858 -6.00163 0.01 
110 1 11 -0.255657 -0.149541 0.064716 -0.473271 -0.346132 -0.182825 0 0 0 4.57816 -0.841858 -6.00163 0.01 
111 1 12 0.120075 0.0446182 0.0500359 0.015999 -0.0165805 -0.119474 -0.234029 0.978346 0.844881 -1.06195 0.212384 -7.68833 0.01 
112 1 12 0.121927 0.0484144 0.0579831 0.0468736 -0.02238 -0.123899 0 0 0 -1.06195 0.212384 -7.68833 0.01 
113 1 12 0.123779 0.0522106 0.0659304 0.0777482 -0.0281795 -0.128324 1.55815 0.167271 -0.124968 -1.06195 0.212384 -7.68833 0.01 
114 1 12 0.125631 0.0560069 0.0738776 0.108623 -0.033979 -0.132749 -0.897479 -0.248543 0.176696 -1.06195 0.212384 -7.68833 0.01 
115 1 12 0.127483 0.0598031 0.0818248 0.139497 -0.0397785 -0.137173 0.270523 -0.657758 -0.123279 -1.06195 0.212384 -7.68833 0.01 
116 1 12 0.129335 0.0635994 0.0897721 0.170372 -0.045578 -0.141598 0 0 0 -1.06195 0.212384 -7.68833 0.01 
117 1 12 0.131187 0.0673956 0.0977193 0.201247 -0.0513775 -0.146023 0 0 0 -1.06195 0.212384 -7.68833 0.01 
118 1 12 0.133039 0.0711918 0.105667 0.232121 -0.0571771 -0.150448 0 0 0 -1.06195 0.212384 -7.68833 0.01 
119 1 12 0.134891 0.0749881 0.113614 0.262996 -0.0629766 -0.154873 -0.638792 0.379239 -0.228321 -1.06195 0.212384 -7.68833 0.01 
120 1 12 0.136743 0.0787843 0.121561 0.29387 -0.0687761 -0.159297 0 0 0 -1.06195 0.212384 -7.68833 0.01 
121 1 13 -0.000868696 0.290605 0.066331 -0.0894759 0.125989 -0.101643 -0.427871 -0.255962 0.354635 -2.37744 -6.90432 5.81152 0.01 
122 1 13 -0.0048903 0.285546 0.0725944 -0.103318 0.117508 -0.117381 0 0 0 -2.37744 -6.90432 5.81152 0.01 
123 1 13 -0.0089119 0.280486 0.0788578 -0.117161 0.109027 -0.133119 0 0 0 -2.37744 -6.90432 5.81152 0.01 
124 1 13 -0.0129335 0.275427 0.0851212 -0.131003 0.100546 -0.148857 0 0 0 -2.37744 -6.90432 5.81152 0.01 
125 1 13 -0.0169551 0.270368 0.0913847 -0.144846 0.0920657 -0.164595 0 0 0 -2.37744 -6.90432 5.81152 0.01 
126 1 13 -0.0209767 0.265309 0.0976481 -0.158688 0.083585 -0.180334 0 0 0 -2.37744 -6.90432 5.81152 0.01 
127 1 13 -0.0249983 0.260249 0.103911 -0.172531 0.0751043 -0.196072 0 0 0 -2.37744 -6.90432 5.81152 0.01 
128 1 13 -0.0290199 0.25519 0.110175 -0.186373 0.0666236 -0.21181 0 0 0 -2.37744 -6.90432 5.81152 0.01 
129 1 13 -0.0330415 0.250131 0.116438 -0.200215 0.0581429 -0.227548 0 0 0 -2.37744 -6.90432 5.81152 0.01 
130 1 13 -0.0370631 0.245071 0.122702 -0.214058 0.0496622 -0.243287 0 0 0 -2.37744 -6.90432 5.81152 0.01 
131 1 14 -0.0471295 0.127294 0.0118589 0.0687054 -0.00991944 0.0439355 1.42216 1.07568 -2.78951 -2.64063 -5.76241 -0.22503 0.01 
132 1 14 -0.046411 0.133646 0.0181939 0.0336304 0.00664709 0.0313014 0.524053 0.0244548 -0.52196 -2.64063 -5.76241 -0.22503 0.01 
133 1 14 -0.0456925 0.139999 0.0245288 -0.00144456 0.0232136 0.0186672 -2.20762 -1.31375 6.95513 -2.64063 -5.76241 -0.22503 0.01 
134 1 14 -0.0449741 0.146351 0.0308637 -0.0365196 0.0397801 0.00603309 -0.572619 0.143379 0.372665 -2.64063 -5.76241 -0.22503 0.01 
135 1 14 -0.0442556 0.152703 0.0371987 -0.0715945 0.0563467 -0.00660106 -0.316646 0.540297 -0.771565 -2.64063 -5.76241 -0.22503 0.01 
136 1 14 -0.0435372 0.159056 0.0435336 -0.10667 0.0729132 -0.0192352 0 0 0 -2.64063 -5.76241 -0.22503 0.01 
137 1 14 -0.0428187 0.165408 0.0498685 -0.141745 0.0894797 -0.0318694 0 0 0 -2.64063 -5.76241 -0.22503 0.01 
138 1 14 -0.0421002 0.17176 0.0562035 -0.17682 0.106046 -0.0445035 0 0 0 -2.64063 -5.76241 -0.22503 0.01 
139 1 14 -0.0413818 0.178113 0.0625384 -0.211894 0.122613 -0.0571376 0 0 0 -2.64063 -5.76241 -0.22503 0.01 
140 1 14 -0.0406633 0.184465 0.0688733 -0.246969 0.139179 -0.0697718 0.585801 -0.532521 -2.54952 -2.64063 -5.76241 -0.22503 0.01 
141 1 15 -0.00869426 -0.0607403 0.00980011 0.0143888 -0.080881 -0.0299223 -0.555728 1.23907 3.06381 -2.78237 -2.46304 1.86689 0.01 
142 1 15 -0.0129825 -0.0642776 0.0168781 0.00355916 -0.0691929 -0.0306421 -0.124005 -1.23966 -1.25999 -2.78237 -2.46304 1.86689 0.01 
143 1 15 -0.0172707 -0.0678149 0.0239562 -0.0072705 -0.0575048 -0.0313619 -0.518721 -1.84469 -1.49738 -2.78237 -2.46304 1.86689 0.01 
144 1 15 -0.0215589 -0.0713523 0.0310342 -0.0181002 -0.0458166 -0.0320818 0.835531 1.04196 1.56064 -2.78237 -2.46304 1.86689 0.01 
145 1 15 -0.0258471 -0.0748896 0.0381122 -0.0289298 -0.0341285 -0.0328016 0.115404 0.0866487 0.063201 -2.78237 -2.46304 1.86689 0.01 
146 1 15 -0.0301353 -0.0784269 0.0451903 -0.0397595 -0.0224404 -0.0335214 -0.119136 -0.0229926 -0.109811 -2.78237 -2.46304 1.86689 0.01 
147 1 15 -0.0344235 -0.0819643 0.0522683 -0.0505891 -0.0107523 -0.0342413 -0.132573 -0.0312649 -0.114492 -2.78237 -2.46304 1.86689 0.01 
148 1 15 -0.0387117 -0.0855016 0.0593464 -0.0614188 0.000935876 -0.0349611 -0.140921 -0.0363733 -0.115679 -2.78237 -2.46304 1.86689 0.01 
149 1 15 -0.0429999 -0.0890389 0.0664244 -0.0722484 0.012624 -0.035681 -0.143768 -0.0387962 -0.113364 -2.78237 -2.46304 1.86689 0.01 
150 1 15 -0.0472881 -0.0925762 0.0735024 -0.0830781 0.0243121 -0.0364008 -0.632949 -0.657615 -1.78731 -2.78237 -2.46304 1.86689 0.01 
151 1 16 -0.0474268 0.183608 0.0140782 -0.0508173 0.0995033 0.00576096 -0.521647 0.212283 -1.017 -3.52761 -2.9029 -1.40085 0.01 
152 1 16 -0.0457742 0.190735 0.0193194 -0.0560477 0.115677 -0.0145843 0 0 0 -3.52761 -2.9029 -1.40085 0.01 
153 1 16 -0.0441217 0.197863 0.0245606 -0.0612781 0.131851 -0.0349296 0.263297 -0.174502 0.542407 -3.52761 -2.9029 -1.40085 0.01 
154 1 16 -0.0424692 0.20499 0.0298019 -0.0665086 0.148025 -0.0552748 0.98316 -0.216972 0.71048 -3.52761 -2.9029 -1.40085 0.01 
155 1 16 -0.0408167 0.212117 0.0350431 -0.071739 0.164199 -0.0756201 0.795011 -0.212144 0.645935 -3.52761 -2.9029 -1.40085 0.01 
156 1 16 -0.0391641 0.219244 0.0402843 -0.0769694 0.180373 -0.0959654 0 0 0 -3.52761 -2.9029 -1.40085 0.01 
157 1 16 -0.0375116 0.226372 0.0455255 -0.0821998 0.196547 -0.116311 0 0 0 -3.52761 -2.9029 -1.40085 0.01 
158 1 16 -0.0358591 0.233499 0.0507668 -0.0874302 0.212722 -0.136656 0 0 0 -3.52761 -2.9029 -1.40085 0.01 
159 1 16 -0.0342066 0.240626 0.056008 -0.0926607 0.228896 -0.157001 -0.515682 0.0653901 -0.698632 -3.52761 -2.9029 -1.40085 0.01 
160 1 16 -0.032554 0.247754 0.0612492 -0.0978911 0.24507 -0.177346 -0.383891 0.200684 0.269669 -3.52761 -2.9029 -1.40085 0.01 
161 1 17 0.0749106 0.0891575 0.00996496 -0.0508345 0.0484529 -0.00329935 1.21626 -0.29317 -0.519485 1.71541 2.67828 1.51047 0.01 
162 1 17 0.0792671 0.0875069 0.0176654 -0.0277175 0.0418239 -0.0177988 0 0 0 1.71541 2.67828 1.51047 0.01 
163 1 17 0.0836237 0.0858563 0.0253658 -0.00460048 0.035195 -0.0322983 -0.066534 -0.378957 0.301823 1.71541 2.67828 1.51047 0.01 
164 1 17 0.0879802 0.0842057 0.0330662 0.0185165 0.028566 -0.0467978 -0.167942 0.561761 0.602583 1.71541 2.67828 1.51047 0.01 
165 1 17 0.0923367 0.0825552 0.0407666 0.0416335 0.0219371 -0.0612972 -0.359232 0.395697 0.836474 1.71541 2.67828 1.51047 0.01 
166 1 17 0.0966933 0.0809046 0.048467 0.0647506 0.0153082 -0.0757967 0 0 0 1.71541 2.67828 1.51047 0.01 
167 1 17 0.10105 0.079254 0.0561674 0.0878676 0.00867924 -0.0902962 0 0 0 1.71541 2.67828 1.51047 0.01 
168 1 17 0.105406 0.0776034 0.0638678 0.110985 0.00205031 -0.104796 0 0 0 1.71541 2.67828 1.51047 0.01 
169 1 17 0.109763 0.0759528 0.0715682 0.134102 -0.00457863 -0.119295 0 0 0 1.71541 2.67828 1.51047 0.01 
170 1 17 0.114119 0.0743023 0.0792686 0.157219 -0.0112076 -0.133795 -0.211969 -0.228759 -0.768803 1.71541 2.67828 1.51047 0.01 
171 1 18 -0.327597 -0.0427536 0.00995733 -0.0294808 0.0345194 0.0265924 -0.0905212 0.014813 -0.18345 -3.78226 -4.82768 -2.96587 0.01 
172 1 18 -0.325948 -0.0398858 0.0183272 -0.0613824 0.0612847 0.0237081 0 0 0 -3.78226 -4.82768 -2.96587 0.01 
173 1 18 -0.324298 -0.037018 0.0266971 -0.093284 0.0880501 0.0208238 0.0509126 -0.0923689 -0.0381896 -3.78226 -4.82768 -2.96587 0.01 
174 1 18 -0.322649 -0.0341501 0.035067 -0.125186 0.114815 0.0179395 0 0 0 -3.78226 -4.82768 -2.96587 0.01 
175 1 18 -0.321 -0.0312823 0.0434369 -0.157087 0.141581 0.0150552 0 0 0 -3.78226 -4.82768 -2.96587 0.01 
176 1 18 -0.31935 -0.0284145 0.0518068 -0.188989 0.168346 0.0121709 0 0 0 -3.78226 -4.82768 -2.96587 0.01 
177 1 18 -0.317701 -0.0255466 0.0601767 -0.22089 0.195111 0.00928657 0 0 0 -3.78226 -4.82768 -2.96587 0.01 
178 1 18 -0.316052 -0.0226788 0.0685466 -0.252792 0.221877 0.00640227 0 0 0 -3.78226 -4.82768 -2.96587 0.01 
179 1 18 -0.314402 -0.019811 0.0769165 -0.284694 0.248642 0.00351796 0 0 0 -3.78226 -4.82768 -2.96587 0.01 
180 1 18 -0.312753 -0.0169431 0.0852864 -0.316595 0.275407 0.000633659 0 0 0 -3.78226 -4.82768 -2.96587 0.01 
181 1 19 0.0161054 0.224161 0.0808224 0.0910829 0.228314 -0.258881 0 0 0 -0.729024 9.01555 -8.43877 0.01 
182 1 19 0.0163052 0.217099 0.0863981 0.0817579 0.230693 -0.255534 0.569716 0.401525 0.49235 -0.729024 9.01555 -8.43877 0.01 
183 1 19 0.0165051 0.210037 0.0919739 0.0724328 0.233071 -0.252187 0 0 0 -0.729024 9.01555 -8.43877 0.01 
184 1 19 0.0167049 0.202975 0.0975497 0.0631078 0.23545 -0.24884 -0.0693517 -0.300964 -0.510811 -0.729024 9.01555 -8.43877 0.01 
185 1 19 0.0169047 0.195913 0.103126 0.0537828 0.237829 -0.245493 0 0 0 -0.729024 9.01555 -8.43877 0.01 
186 1 19 0.0171045 0.188851 0.108701 0.0444578 0.240207 -0.242147 0 0 0 -0.729024 9.01555 -8.43877 0.01 
187 1 19 0.0173043 0.181789 0.114277 0.0351328 0.242586 -0.2388 0 0 0 -0.729024 9.01555 -8.43877 0.01 
188 1 19 0.0175042 0.174728 0.119853 0.0258077 0.244965 -0.235453 0 0 0 -0.729024 9.01555 -8.43877 0.01 
189 1 19 0.017704 0.167666 0.125429 0.0164827 0.247343 -0.232106 0 0 0 -0.729024 9.01555 -8.43877 0.01 
190 1 19 0.0179038 0.160604 0.131005 0.0071577 0.249722 -0.228759 -0.0109174 0.0971368 0.278699 -0.729024 9.01555 -8.43877 0.01 
191 1 20 -0.00724434 0.194748 0.0127919 -0.034698 0.0204159 0.00936813 2.22586 1.48911 -2.43538 -2.37031 -6.88847 -2.6313 0.01 
192 1 20 -0.00527668 0.20207 0.0176413 -0.0488369 0.0267331 0.00556694 -0.354494 -0.0692226 0.00980557 -2.37031 -6.88847 -2.6313 0.01 
193 1 20 -0.00330902 0.209392 0.0224908 -0.0629758 0.0330502 0.00176576 -0.981767 -0.489634 0.714488 -2.37031 -6.88847 -2.6313 0.01 
194 1 20 -0.00134136 0.216714 0.0273402 -0.0771147 0.0393674 -0.00203543 -0.719061 -0.630895 1.21831 -2.37031 -6.88847 -2.6313 0.01 
195 1 20 0.000626301 0.224036 0.0321896 -0.0912536 0.0456846 -0.00583662 -0.525129 -0.60773 1.37626 -2.37031 -6.88847 -2.6313 0.01 
196 1 20 0.00259396 0.231358 0.0370391 -0.105392 0.0520018 -0.00963781 -0.326991 -0.375257 1.00961 -2.37031 -6.88847 -2.6313 0.01 
197 1 20 0.00456162 0.23868 0.0418885 -0.119531 0.0583189 -0.013439 -0.0997728 -0.203324 0.316638 -2.37031 -6.88847 -2.6313 0.01 
198 1 20 0.00652928 0.246002 0.046738 -0.13367 0.0646361 -0.0172402 -0.0375074 -0.0212796 0.0657078 -2.37031 -6.88847 -2.6313 0.01 
199 1 20 0.00849694 0.253324 0.0515874 -0.147809 0.0709533 -0.0210414 0.71655 0.991908 -1.65777 -2.37031 -6.88847 -2.6313 0.01 
200 1 20 0.0104646 0.260646 0.0564368 -0.161948 0.0772705 -0.0248426 0 0 0 -2.37031 -6.88847 -2.6313 0.01 
201 1 21 0.013474 0.00403832 0.0112365 -0.0434418 -0.00314056 0.00631015 0.345164 0.448183 -0.0511647 -1.49475 0.576302 -0.162596 0.01 
202 1 21 0.0113161 0.0107217 0.0168646 -0.0391116 0.00562289 -0.00243628 0 0 0 -1.49475 0.576302 -0.162596 0.01 
203 1 21 0.00915814 0.0174052 0.0224927 -0.0347814 0.0143863 -0.0111827 -0.143196 -0.927621 1.58597 -1.49475 0.576302 -0.162596 0.01 
204 1 21 0.0070002 0.0240886 0.0281207 -0.0304513 0.0231498 -0.0199292 -1.26056 0.23139 -1.41229 -1.49475 0.576302 -0.162596 0.01 
205 1 21 0.00484227 0.030772 0.0337488 -0.0261211 0.0319133 -0.0286756 0 0 0 -1.49475 0.576302 -0.162596 0.01 
206 1 21 0.00268433 0.0374554 0.0393769 -0.0217909 0.0406767 -0.037422 0 0 0 -1.49475 0.576302 -0.162596 0.01 
207 1 21 0.00052639 0.0441388 0.045005 -0.0174608 0.0494402 -0.0461685 0.55805 0.485383 0.0935174 -1.49475 0.576302 -0.162596 0.01 
208 1 21 -0.00163155 0.0508223 0.050633 -0.0131306 0.0582036 -0.0549149 0.00969817 -0.0108087 0.0158422 -1.49475 0.576302 -0.162596 0.01 
209 1 21 -0.00378949 0.0575057 0.0562611 -0.00880042 0.0669671 -0.0636613 0.000447305 -0.000571123 0.000795131 -1.49475 0.576302 -0.162596 0.01 
210 1 21 -0.00594742 0.0641891 0.0618892 -0.00447025 0.0757305 -0.0724078 0 0 0 -1.49475 0.576302 -0.162596 0.01 
211 1 22 0.0167435 0.278589 0.067349 -0.0993009 0.0375089 0.0175758 -1.08139 -1.00214 2.03034 1.4635 -0.079853 -2.25543 0.01 
212 1 22 0.0129267 0.272809 0.0730952 -0.112797 0.0377077 0.00881146 0 0 0 1.4635 -0.079853 -2.25543 0.01 
213 1 22 0.00910997 0.267028 0.0788415 -0.126293 0.0379066 4.70711e-05 0 0 0 1.4635 -0.079853 -2.25543 0.01 
214 1 22 0.00529319 0.261248 0.0845877 -0.139789 0.0381055 -0.00871732 0 0 0 1.4635 -0.079853 -2.25543 0.01 
215 1 22 0.00147641 0.255468 0.0903339 -0.153285 0.0383043 -0.0174817 -0.0316039 -0.0744717 -0.310144 1.4635 -0.079853 -2.25543 0.01 
216 1 22 -0.00234037 0.249687 0.0960802 -0.166781 0.0385032 -0.0262461 0 0 0 1.4635 -0.079853 -2.25543 0.01 
217 1 22 -0.00615715 0.243907 0.101826 -0.180278 0.038702 -0.0350105 0 0 0 1.4635 -0.079853 -2.25543 0.01 
218 1 22 -0.00997392 0.238126 0.107573 -0.193774 0.0389009 -0.0437749 -0.0012365 0.000532322 -0.00178368 1.4635 -0.079853 -2.25543 0.01 
219 1 22 -0.0137907 0.232346 0.113319 -0.20727 0.0390997 -0.0525393 0.165344 0.11735 0.082 1.4635 -0.079853 -2.25543 0.01 
220 1 22 -0.0176075 0.226566 0.119065 -0.220766 0.0392986 -0.0613036 0.117062 0.0919226 0.0632567 1.4635 -0.079853 -2.25543 0.01 
221 1 23 0.275355 0.0562544 0.0770462 0.405117 0.0952174 -0.217108 0.000457376 -0.00249545 0.00105306 -5.79922 2.39333 6.355 0.01 
222 1 23 0.269004 0.0602448 0.082021 0.391664 0.0837103 -0.225051 0 0 0 -5.79922 2.39333 6.355 0.01 
223 1 23 0.262654 0.0642353 0.0869958 0.378211 0.0722031 -0.232994 0 0 0 -5.79922 2.39333 6.355 0.01 
224 1 23 0.256304 0.0682257 0.0919705 0.364758 0.060696 -0.240936 0.12856 0.176775 0.455577 -5.79922 2.39333 6.355 0.01 
225 1 23 0.249953 0.0722161 0.0969453 0.351305 0.0491888 -0.248879 0.0114985 -0.00711391 0.0156739 -5.79922 2.39333 6.355 0.01 
226 1 23 0.243603 0.0762066 0.10192 0.337852 0.0376817 -0.256822 0 0 0 -5.79922 2.39333 6.355 0.01 
227 1 23 0.237252 0.080197 0.106895 0.324399 0.0261746 -0.264765 0 0 0 -5.79922 2.39333 6.355 0.01 
228 1 23 0.230902 0.0841874 0.11187 0.310946 0.0146674 -0.272707 0 0 0 -5.79922 2.39333 6.355 0.01 
229 1 23 0.224551 0.0881778 0.116844 0.297493 0.00316028 -0.28065 0 0 0 -5.79922 2.39333 6.355 0.01 
230 1 23 0.218201 0.0921683 0.121819 0.28404 -0.00834686 -0.288593 0 0 0 -5.79922 2.39333 6.355 0.01 
231 1 24 0.176096 0.00590152 0.0109886 0.187445 -0.380601 0.0391709 0 0 0 12.9846 2.29032 13.4528 0.01 
232 1 24 0.183754 0.00668211 0.0156519 0.187624 -0.338132 0.0317674 0 0 0 12.9846 2.29032 13.4528 0.01 
233 1 24 0.191411 0.00746269 0.0203153 0.187804 -0.295664 0.024364 0 0 0 12.9846 2.29032 13.4528 0.01 
234 1 24 0.199069 0.00824328 0.0249787 0.187983 -0.253195 0.0169605 0.055087 0.0307604 -0.0309421 12.9846 2.29032 13.4528 0.01 
235 1 24 0.206727 0.00902386 0.0296421 0.188163 -0.210727 0.0095571 0.0426896 -0.0245079 0.0299882 12.9846 2.29032 13.4528 0.01 
236 1 24 0.214385 0.00980445 0.0343055 0.188342 -0.168259 0.00215365 0.0213319 -0.0825894 0.184082 12.9846 2.29032 13.4528 0.01 
237 1 24 0.222043 0.010585 0.0389689 0.188522 -0.12579 -0.0052498 -0.0579747 -0.162743 0.29576 12.9846 2.29032 13.4528 0.01 
238 1 24 0.229701 0.0113656 0.0436323 0.188701 -0.083322 -0.0126533 0.0155164 -0.258429 0.397645 12.9846 2.29032 13.4528 0.01 
239 1 24 0.237359 0.0121462 0.0482957 0.188881 -0.0408536 -0.0200567 0.111631 -0.467127 0.303723 12.9846 2.29032 13.4528 0.01 
240 1 24 0.245017 0.0129268 0.0529591 0.18906 0.00161476 -0.0274602 0.0161232 0.815416 -0.25113 12.9846 2.29032 13.4528 0.01 
241 1 25 0.142371 -0.220534 0.0497524 -0.167124 -0.201227 0.0054753 0.738977 1.20209 3.41815 4.29977 10.351 2.53896 0.01 
242 1 25 0.145636 -0.217486 0.0575661 -0.0939841 -0.226536 -0.0152087 0 0 0 4.29977 10.351 2.53896 0.01 
243 1 25 0.1489 -0.214438 0.0653797 -0.0208437 -0.251845 -0.0358928 0 0 0 4.29977 10.351 2.53896 0.01 
244 1 25 0.152165 -0.21139 0.0731934 0.0522967 -0.277154 -0.0565768 0 0 0 4.29977 10.351 2.53896 0.01 
245 1 25 0.155429 -0.208342 0.0810071 0.125437 -0.302462 -0.0772609 0 0 0 4.29977 10.351 2.53896 0.01 
246 1 25 0.158693 -0.205294 0.0888208 0.198577 -0.327771 -0.0979449 0 0 0 4.29977 10.351 2.53896 0.01 
247 1 25 0.161958 -0.202246 0.0966345 0.271718 -0.35308 -0.118629 0 0 0 4.29977 10.351 2.53896 0.01 
248 1 25 0.165222 -0.199198 0.104448 0.344858 -0.378389 -0.139313 0 0 0 4.29977 10.351 2.53896 0.01 
249 1 25 0.168487 -0.19615 0.112262 0.417999 -0.403698 -0.159997 0 0 0 4.29977 10.351 2.53896 0.01 
250 1 25 0.171751 -0.193102 0.120076 0.491139 -0.429007 -0.180681 0 0 0 4.29977 10.351 2.53896 0.01 
251 1 26 -0.00219891 -0.175552 0.00982906 -0.00990577 -0.0313682 -0.00343607 0.360754 0.585971 0.864601 0.794241 0.622748 2.27024 0.01 
252 1 26 -0.00104249 -0.182398 0.0155569 0.00920113 -0.0332921 -0.00959286 -0.972169 -0.799657 -1.35146 0.794241 0.622748 2.27024 0.01 
253 1 26 0.000113938 -0.189243 0.0212847 0.028308 -0.035216 -0.0157496 0.388266 1.14636 1.83551 0.794241 0.622748 2.27024 0.01 