ITEM: TIMESTEP
32000
ITEM: NUMBER OF ATOMS
6300
ITEM: BOX BOUNDS mm mm mm
-0.36469 0.357222
-0.330577 0.376632
0 0.5
ITEM: ATOMS id type mol x y z vx vy vz fx fy fz omegax omegay omegaz radius 
1 1 1 -0.134596 -0.111977 0.0852401 -0.222425 -0.0355032 -0.0672414 1.28497 -0.837086 -1.12652 4.15401 3.56333 -5.3228 0.01 
2 1 1 -0.13439 -0.117292 0.0925003 -0.224844 -0.0667586 -0.090053 -1.78986 0.948217 1.72268 4.15401 3.56333 -5.3228 0.01 
3 1 1 -0.134184 -0.122606 0.0997605 -0.227263 -0.098014 -0.112865 0 0 0 4.15401 3.56333 -5.3228 0.01 
4 1 1 -0.133978 -0.127921 0.107021 -0.229682 -0.129269 -0.135676 0 0 0 4.15401 3.56333 -5.3228 0.01 
5 1 1 -0.133772 -0.133236 0.114281 -0.232101 -0.160525 -0.158488 0 0 0 4.15401 3.56333 -5.3228 0.01 
6 1 1 -0.133566 -0.138551 0.121541 -0.23452 -0.19178 -0.181299 0 0 0 4.15401 3.56333 -5.3228 0.01 
7 1 1 -0.13336 -0.143866 0.128801 -0.236939 -0.223036 -0.204111 0 0 0 4.15401 3.56333 -5.3228 0.01 
8 1 1 -0.133154 -0.14918 0.136062 -0.239358 -0.254291 -0.226922 -0.10846 0.0213921 0.00069499 4.15401 3.56333 -5.3228 0.01 
9 1 1 -0.132948 -0.154495 0.143322 -0.241776 -0.285546 -0.249734 0 0 0 4.15401 3.56333 -5.3228 0.01 
10 1 1 -0.132742 -0.15981 0.150582 -0.244195 -0.316802 -0.272545 0 0 0 4.15401 3.56333 -5.3228 0.01 
11 1 2 -0.0209342 -0.125917 0.0295271 -0.0422632 -0.10074 -0.181558 -0.263765 0.210394 0.368464 3.23604 0.818831 -2.45066 0.01 
12 1 2 -0.0235167 -0.127171 0.038057 -0.038351 -0.122014 -0.183501 0 0 0 3.23604 0.818831 -2.45066 0.01 
13 1 2 -0.0260992 -0.128425 0.0465868 -0.0344389 -0.143289 -0.185443 0 0 0 3.23604 0.818831 -2.45066 0.01 
14 1 2 -0.0286817 -0.129678 0.0551167 -0.0305267 -0.164563 -0.187385 0 0 0 3.23604 0.818831 -2.45066 0.01 
15 1 2 -0.0312642 -0.130932 0.0636466 -0.0266145 -0.185837 -0.189328 0.0321445 0.0156834 6.72025e-05 3.23604 0.818831 -2.45066 0.01 
16 1 2 -0.0338467 -0.132186 0.0721765 -0.0227023 -0.207112 -0.19127 0.521343 -1.18486 0.284099 3.23604 0.818831 -2.45066 0.01 
17 1 2 -0.0364291 -0.133439 0.0807064 -0.0187902 -0.228386 -0.193212 0 0 0 3.23604 0.818831 -2.45066 0.01 
18 1 2 -0.0390116 -0.134693 0.0892363 -0.014878 -0.24966 -0.195155 -0.0203571 -0.00593571 -0.00819662 3.23604 0.818831 -2.45066 0.01 
19 1 2 -0.0415941 -0.135947 0.0977662 -0.0109658 -0.270934 -0.197097 0 0 0 3.23604 0.818831 -2.45066 0.01 
20 1 2 -0.0441766 -0.1372 0.106296 -0.00705366 -0.292209 -0.19904 -0.645722 1.3713 -0.183177 3.23604 0.818831 -2.45066 0.01 
21 1 3 -0.0300832 -0.0385283 0.00992335 0.0951362 -0.0916207 -0.00395723 -0.359503 0.146709 0.498641 2.38648 -1.28593 -3.19365 0.01 
22 1 3 -0.0332353 -0.0440644 0.0162807 0.0692807 -0.0967258 -0.0212224 0 0 0 2.38648 -1.28593 -3.19365 0.01 
23 1 3 -0.0363874 -0.0496005 0.022638 0.0434252 -0.101831 -0.0384876 0 0 0 2.38648 -1.28593 -3.19365 0.01 
24 1 3 -0.0395395 -0.0551366 0.0289954 0.0175696 -0.106936 -0.0557528 1.37554 -1.23104 0.611584 2.38648 -1.28593 -3.19365 0.01 
25 1 3 -0.0426915 -0.0606727 0.0353527 -0.00828589 -0.112041 -0.073018 0 0 0 2.38648 -1.28593 -3.19365 0.01 
26 1 3 -0.0458436 -0.0662088 0.0417101 -0.0341414 -0.117146 -0.0902833 0 0 0 2.38648 -1.28593 -3.19365 0.01 
27 1 3 -0.0489957 -0.0717449 0.0480674 -0.059997 -0.122251 -0.107548 0 0 0 2.38648 -1.28593 -3.19365 0.01 
28 1 3 -0.0521478 -0.0772811 0.0544248 -0.0858525 -0.127356 -0.124814 -0.902454 2.37174 0.662571 2.38648 -1.28593 -3.19365 0.01 
29 1 3 -0.0552999 -0.0828172 0.0607821 -0.111708 -0.132461 -0.142079 -1.27987 -0.60415 -1.88288 2.38648 -1.28593 -3.19365 0.01 
30 1 3 -0.058452 -0.0883533 0.0671394 -0.137564 -0.137566 -0.159344 1.18096 -0.114292 0.40008 2.38648 -1.28593 -3.19365 0.01 
31 1 4 -0.0889055 0.118339 0.0104826 0.0027208 0.227189 -0.0920213 0 0 0 -5.98156 10.6398 16.3834 0.01 
32 1 4 -0.0911504 0.12395 0.0171516 -0.0182515 0.230301 -0.101699 0 0 0 -5.98156 10.6398 16.3834 0.01 
33 1 4 -0.0933953 0.129561 0.0238206 -0.0392237 0.233414 -0.111378 0 0 0 -5.98156 10.6398 16.3834 0.01 
34 1 4 -0.0956401 0.135172 0.0304896 -0.060196 0.236526 -0.121056 0 0 0 -5.98156 10.6398 16.3834 0.01 
35 1 4 -0.097885 0.140783 0.0371586 -0.0811682 0.239638 -0.130734 0 0 0 -5.98156 10.6398 16.3834 0.01 
36 1 4 -0.10013 0.146394 0.0438276 -0.10214 0.24275 -0.140412 0 0 0 -5.98156 10.6398 16.3834 0.01 
37 1 4 -0.102375 0.152006 0.0504967 -0.123113 0.245863 -0.15009 0.49621 -0.0420511 0.0658288 -5.98156 10.6398 16.3834 0.01 
38 1 4 -0.10462 0.157617 0.0571657 -0.144085 0.248975 -0.159768 0 0 0 -5.98156 10.6398 16.3834 0.01 
39 1 4 -0.106865 0.163228 0.0638347 -0.165057 0.252087 -0.169446 -0.809674 -0.0351195 -0.323291 -5.98156 10.6398 16.3834 0.01 
40 1 4 -0.109109 0.168839 0.0705037 -0.186029 0.255199 -0.179124 0.179572 -0.0158483 0.331181 -5.98156 10.6398 16.3834 0.01 
41 1 5 0.0794672 -0.135474 0.00987934 -6.44803e-05 -0.00174428 -0.000416547 -0.00643761 0.125015 1.04679 0.0827219 0.751762 -1.07461 0.01 
42 1 5 0.0803938 -0.134584 0.0187872 0.00758837 -0.00347687 -0.0010395 0.0844025 -0.000348943 -0.0704582 0.0827219 0.751762 -1.07461 0.01 
43 1 5 0.0813203 -0.133694 0.027695 0.0152412 -0.00520945 -0.00166246 0 0 0 0.0827219 0.751762 -1.07461 0.01 
44 1 5 0.0822469 -0.132804 0.0366029 0.0228941 -0.00694203 -0.00228541 0 0 0 0.0827219 0.751762 -1.07461 0.01 
45 1 5 0.0831735 -0.131914 0.0455107 0.0305469 -0.00867462 -0.00290837 0 0 0 0.0827219 0.751762 -1.07461 0.01 
46 1 5 0.0841001 -0.131024 0.0544185 0.0381998 -0.0104072 -0.00353133 0 0 0 0.0827219 0.751762 -1.07461 0.01 
47 1 5 0.0850267 -0.130135 0.0633264 0.0458526 -0.0121398 -0.00415428 0 0 0 0.0827219 0.751762 -1.07461 0.01 
48 1 5 0.0859532 -0.129245 0.0722342 0.0535055 -0.0138724 -0.00477724 -0.110457 -0.129551 0.0753764 0.0827219 0.751762 -1.07461 0.01 
49 1 5 0.0868798 -0.128355 0.081142 0.0611583 -0.015605 -0.00540019 0 0 0 0.0827219 0.751762 -1.07461 0.01 
50 1 5 0.0878064 -0.127465 0.0900499 0.0688112 -0.0173375 -0.00602315 0.0504604 0.0261105 -0.513034 0.0827219 0.751762 -1.07461 0.01 
51 1 6 0.189771 -0.0328033 0.0159637 0.0865301 -0.10753 0.155557 0 0 0 10.7613 -0.580085 -3.95848 0.01 
52 1 6 0.183351 -0.0383499 0.0189673 0.0628319 -0.114439 0.0921453 -1.14206 0.439326 0.81941 10.7613 -0.580085 -3.95848 0.01 
53 1 6 0.176931 -0.0438964 0.0219709 0.0391338 -0.121349 0.0287336 0 0 0 10.7613 -0.580085 -3.95848 0.01 
54 1 6 0.170512 -0.0494429 0.0249745 0.0154356 -0.128259 -0.034678 0 0 0 10.7613 -0.580085 -3.95848 0.01 
55 1 6 0.164092 -0.0549894 0.0279781 -0.00826256 -0.135168 -0.0980897 0.120844 -0.045863 0.259832 10.7613 -0.580085 -3.95848 0.01 
56 1 6 0.157672 -0.060536 0.0309817 -0.0319607 -0.142078 -0.161501 0 0 0 10.7613 -0.580085 -3.95848 0.01 
57 1 6 0.151252 -0.0660825 0.0339853 -0.0556589 -0.148988 -0.224913 0 0 0 10.7613 -0.580085 -3.95848 0.01 
58 1 6 0.144832 -0.071629 0.0369889 -0.079357 -0.155897 -0.288325 1.12921 -0.859739 -1.04639 10.7613 -0.580085 -3.95848 0.01 
59 1 6 0.138412 -0.0771755 0.0399925 -0.103055 -0.162807 -0.351736 -0.35697 -0.11135 -0.44253 10.7613 -0.580085 -3.95848 0.01 
60 1 6 0.131993 -0.0827221 0.0429961 -0.126753 -0.169717 -0.415148 0 0 0 10.7613 -0.580085 -3.95848 0.01 
61 1 7 -0.0411201 0.21966 0.0109101 -0.216929 -0.145889 0.0432428 0 0 0 -12.6296 2.57381 -5.38011 0.01 
62 1 7 -0.0391093 0.224479 0.0182403 -0.172134 -0.0641308 -0.0227986 0.328362 0.43848 0.0650219 -12.6296 2.57381 -5.38011 0.01 
63 1 7 -0.0370985 0.229298 0.0255704 -0.127339 0.0176273 -0.0888399 -1.55497 -0.476601 4.10327 -12.6296 2.57381 -5.38011 0.01 
64 1 7 -0.0350877 0.234118 0.0329005 -0.082544 0.0993854 -0.154881 1.46191 1.05201 -2.23157 -12.6296 2.57381 -5.38011 0.01 
65 1 7 -0.0330769 0.238937 0.0402307 -0.0377491 0.181143 -0.220923 0.979474 0.0824472 -2.54485 -12.6296 2.57381 -5.38011 0.01 
66 1 7 -0.0310661 0.243756 0.0475608 0.00704576 0.262902 -0.286964 0.640398 0.173695 -1.01835 -12.6296 2.57381 -5.38011 0.01 
67 1 7 -0.0290553 0.248576 0.0548909 0.0518406 0.34466 -0.353005 -0.474882 -0.70007 -0.336259 -12.6296 2.57381 -5.38011 0.01 
68 1 7 -0.0270446 0.253395 0.0622211 0.0966355 0.426418 -0.419047 0 0 0 -12.6296 2.57381 -5.38011 0.01 
69 1 7 -0.0250338 0.258214 0.0695512 0.14143 0.508176 -0.485088 0 0 0 -12.6296 2.57381 -5.38011 0.01 
70 1 7 -0.023023 0.263034 0.0768813 0.186225 0.589934 -0.55113 0 0 0 -12.6296 2.57381 -5.38011 0.01 
71 1 8 0.137798 -0.165042 0.0982634 0.155597 -0.372807 -0.116219 0.129244 -0.476835 0.313132 0.170273 12.5019 5.46782 0.01 
72 1 8 0.145023 -0.162922 0.103194 0.205655 -0.334144 -0.206179 0 0 0 0.170273 12.5019 5.46782 0.01 
73 1 8 0.152248 -0.160803 0.108125 0.255713 -0.295481 -0.296138 -0.0975207 0.250849 -0.234585 0.170273 12.5019 5.46782 0.01 
74 1 8 0.159472 -0.158684 0.113056 0.305771 -0.256818 -0.386098 0 0 0 0.170273 12.5019 5.46782 0.01 
75 1 8 0.166697 -0.156564 0.117987 0.35583 -0.218156 -0.476057 0 0 0 0.170273 12.5019 5.46782 0.01 
76 1 8 0.173921 -0.154445 0.122918 0.405888 -0.179493 -0.566016 0 0 0 0.170273 12.5019 5.46782 0.01 
77 1 8 0.181146 -0.152326 0.127849 0.455946 -0.14083 -0.655976 0 0 0 0.170273 12.5019 5.46782 0.01 
78 1 8 0.18837 -0.150206 0.13278 0.506004 -0.102167 -0.745935 0 0 0 0.170273 12.5019 5.46782 0.01 
79 1 8 0.195595 -0.148087 0.137711 0.556062 -0.063504 -0.835895 0 0 0 0.170273 12.5019 5.46782 0.01 
80 1 8 0.202819 -0.145968 0.142642 0.60612 -0.0248411 -0.925854 0 0 0 0.170273 12.5019 5.46782 0.01 
81 1 9 -0.130573 0.0404881 0.0646798 -0.158401 -0.1865 -0.101399 0.0978085 -0.298435 0.0720694 9.26074 0.388296 14.591 0.01 
82 1 9 -0.124252 0.0401522 0.0710781 -0.151015 -0.153532 -0.106964 0 0 0 9.26074 0.388296 14.591 0.01 
83 1 9 -0.117932 0.0398163 0.0774765 -0.143629 -0.120564 -0.112529 0 0 0 9.26074 0.388296 14.591 0.01 
84 1 9 -0.111611 0.0394803 0.0838748 -0.136243 -0.0875956 -0.118095 0 0 0 9.26074 0.388296 14.591 0.01 
85 1 9 -0.105291 0.0391444 0.0902732 -0.128857 -0.0546275 -0.12366 0 0 0 9.26074 0.388296 14.591 0.01 
86 1 9 -0.0989703 0.0388085 0.0966715 -0.121471 -0.0216595 -0.129225 0 0 0 9.26074 0.388296 14.591 0.01 
87 1 9 -0.0926498 0.0384725 0.10307 -0.114084 0.0113086 -0.13479 -0.157469 -0.871762 1.62929 9.26074 0.388296 14.591 0.01 
88 1 9 -0.0863293 0.0381366 0.109468 -0.106698 0.0442766 -0.140355 0 0 0 9.26074 0.388296 14.591 0.01 
89 1 9 -0.0800089 0.0378006 0.115867 -0.0993122 0.0772446 -0.145921 -0.520888 2.69386 -2.31533 9.26074 0.388296 14.591 0.01 
90 1 9 -0.0736884 0.0374647 0.122265 -0.0919262 0.110213 -0.151486 0.652502 -0.43551 -0.516981 9.26074 0.388296 14.591 0.01 
91 1 10 0.0646803 0.229706 0.10333 0.170383 0.428924 -0.159237 -0.00607057 0.00458585 -0.00668995 3.00162 -9.03279 -6.24948 0.01 
92 1 10 0.0593365 0.233148 0.109702 0.134341 0.443195 -0.197175 0 0 0 3.00162 -9.03279 -6.24948 0.01 
93 1 10 0.0539927 0.23659 0.116073 0.0982995 0.457466 -0.235113 0 0 0 3.00162 -9.03279 -6.24948 0.01 
94 1 10 0.0486489 0.240032 0.122445 0.0622576 0.471737 -0.273051 0 0 0 3.00162 -9.03279 -6.24948 0.01 
95 1 10 0.0433051 0.243474 0.128816 0.0262158 0.486008 -0.310989 0 0 0 3.00162 -9.03279 -6.24948 0.01 
96 1 10 0.0379613 0.246916 0.135188 -0.00982603 0.500279 -0.348927 0 0 0 3.00162 -9.03279 -6.24948 0.01 
97 1 10 0.0326175 0.250358 0.141559 -0.0458679 0.51455 -0.386864 0 0 0 3.00162 -9.03279 -6.24948 0.01 
98 1 10 0.0272737 0.2538 0.147931 -0.0819097 0.528822 -0.424802 0.0124608 -0.00329456 0.00279922 3.00162 -9.03279 -6.24948 0.01 
99 1 10 0.0219299 0.257242 0.154302 -0.117952 0.543093 -0.46274 0 0 0 3.00162 -9.03279 -6.24948 0.01 
100 1 10 0.016586 0.260684 0.160674 -0.153993 0.557364 -0.500678 0 0 0 3.00162 -9.03279 -6.24948 0.01 
101 1 11 -0.242366 -0.0822754 0.010621 -0.122977 -0.151005 0.0258436 -0.75404 -0.613274 -1.40899 0.696744 5.26017 -7.02202 0.01 
102 1 11 -0.241884 -0.0882497 0.0173349 -0.129612 -0.159067 0.0191461 0 0 0 0.696744 5.26017 -7.02202 0.01 
103 1 11 -0.241402 -0.0942239 0.0240488 -0.136247 -0.167128 0.0124487 0.0619355 0.598697 0.321345 0.696744 5.26017 -7.02202 0.01 
104 1 11 -0.24092 -0.100198 0.0307626 -0.142882 -0.17519 0.00575117 1.49534 0.633991 2.62859 0.696744 5.26017 -7.02202 0.01 
105 1 11 -0.240439 -0.106172 0.0374765 -0.149517 -0.183252 -0.000946326 -1.64237 0.866428 -0.69993 0.696744 5.26017 -7.02202 0.01 
106 1 11 -0.239957 -0.112147 0.0441904 -0.156153 -0.191314 -0.00764382 0 0 0 0.696744 5.26017 -7.02202 0.01 
107 1 11 -0.239475 -0.118121 0.0509043 -0.162788 -0.199376 -0.0143413 0 0 0 0.696744 5.26017 -7.02202 0.01 
108 1 11 -0.238993 -0.124095 0.0576182 -0.169423 -0.207438 -0.0210388 0.647241 -0.818945 -0.259026 0.696744 5.26017 -7.02202 0.01 
109 1 11 -0.238511 -0.130069 0.064332 -0.176058 -0.2155 -0.0277363 0 0 0 0.696744 5.26017 -7.02202 0.01 
110 1 11 -0.238029 -0.136044 0.0710459 -0.182693 -0.223562 -0.0344338 -0.891708 -0.103122 -0.241217 0.696744 5.26017 -7.02202 0.01 
111 1 12 0.11787 0.0465278 0.0525811 0.0341878 -0.0622037 -0.083558 0.789441 0.955324 0.68242 -1.88202 3.53691 0.3226 0.01 
112 1 12 0.118407 0.049944 0.0608902 0.0624742 -0.0463926 -0.0918866 0 0 0 -1.88202 3.53691 0.3226 0.01 
113 1 12 0.118943 0.0533603 0.0691993 0.0907605 -0.0305815 -0.100215 -0.0518607 -0.060707 0.0781992 -1.88202 3.53691 0.3226 0.01 
114 1 12 0.11948 0.0567766 0.0775083 0.119047 -0.0147705 -0.108544 0 0 0 -1.88202 3.53691 0.3226 0.01 
115 1 12 0.120017 0.0601929 0.0858174 0.147333 0.00104057 -0.116872 -0.228978 -0.799671 0.872908 -1.88202 3.53691 0.3226 0.01 
116 1 12 0.120554 0.0636092 0.0941265 0.17562 0.0168516 -0.125201 0 0 0 -1.88202 3.53691 0.3226 0.01 
117 1 12 0.121091 0.0670255 0.102436 0.203906 0.0326627 -0.13353 0 0 0 -1.88202 3.53691 0.3226 0.01 
118 1 12 0.121628 0.0704418 0.110745 0.232192 0.0484737 -0.141858 0 0 0 -1.88202 3.53691 0.3226 0.01 
119 1 12 0.122165 0.0738581 0.119054 0.260479 0.0642848 -0.150187 0 0 0 -1.88202 3.53691 0.3226 0.01 
120 1 12 0.122702 0.0772744 0.127363 0.288765 0.0800959 -0.158516 0.0318493 0.0273029 -0.521105 -1.88202 3.53691 0.3226 0.01 
121 1 13 0.00114934 0.279939 0.0732288 0.0574925 0.486416 -0.410377 -3.11507 -3.50539 4.88191 2.10583 5.87615 -3.54323 0.01 
122 1 13 -0.00273451 0.275 0.0796728 0.0778599 0.486608 -0.397955 0 0 0 2.10583 5.87615 -3.54323 0.01 
123 1 13 -0.00661835 0.270062 0.0861168 0.0982272 0.486799 -0.385533 0 0 0 2.10583 5.87615 -3.54323 0.01 
124 1 13 -0.0105022 0.265123 0.0925609 0.118595 0.486991 -0.373111 0 0 0 2.10583 5.87615 -3.54323 0.01 
125 1 13 -0.014386 0.260184 0.0990049 0.138962 0.487182 -0.360689 0 0 0 2.10583 5.87615 -3.54323 0.01 
126 1 13 -0.0182699 0.255246 0.105449 0.159329 0.487373 -0.348267 0 0 0 2.10583 5.87615 -3.54323 0.01 
127 1 13 -0.0221537 0.250307 0.111893 0.179696 0.487565 -0.335844 0 0 0 2.10583 5.87615 -3.54323 0.01 
128 1 13 -0.0260376 0.245369 0.118337 0.200064 0.487756 -0.323422 0 0 0 2.10583 5.87615 -3.54323 0.01 
129 1 13 -0.0299214 0.24043 0.124781 0.220431 0.487947 -0.311 0 0 0 2.10583 5.87615 -3.54323 0.01 
130 1 13 -0.0338053 0.235491 0.131225 0.240798 0.488139 -0.298578 0 0 0 2.10583 5.87615 -3.54323 0.01 
131 1 14 -0.0478394 0.127602 0.00966531 0.0145867 0.00386249 -0.00967887 0.233895 0.917286 3.58085 -3.98836 4.43683 7.33099 0.01 
132 1 14 -0.0463171 0.132757 0.0168838 0.00882143 0.0438127 -0.036994 0.688177 1.46508 -3.39832 -3.98836 4.43683 7.33099 0.01 
133 1 14 -0.0447948 0.137912 0.0241023 0.00305614 0.083763 -0.064309 0.797344 -0.916391 4.65265 -3.98836 4.43683 7.33099 0.01 
134 1 14 -0.0432724 0.143067 0.0313208 -0.00270916 0.123713 -0.0916241 -0.710192 0.302432 -0.708977 -3.98836 4.43683 7.33099 0.01 
135 1 14 -0.0417501 0.148222 0.0385393 -0.00847445 0.163664 -0.118939 0 0 0 -3.98836 4.43683 7.33099 0.01 
136 1 14 -0.0402277 0.153377 0.0457578 -0.0142397 0.203614 -0.146254 0 0 0 -3.98836 4.43683 7.33099 0.01 
137 1 14 -0.0387054 0.158533 0.0529763 -0.020005 0.243564 -0.173569 0 0 0 -3.98836 4.43683 7.33099 0.01 
138 1 14 -0.037183 0.163688 0.0601948 -0.0257703 0.283514 -0.200884 0 0 0 -3.98836 4.43683 7.33099 0.01 
139 1 14 -0.0356607 0.168843 0.0674133 -0.0315356 0.323465 -0.2282 0 0 0 -3.98836 4.43683 7.33099 0.01 
140 1 14 -0.0341383 0.173998 0.0746317 -0.0373009 0.363415 -0.255515 0.315395 -1.86085 -3.30368 -3.98836 4.43683 7.33099 0.01 
141 1 15 -0.00810413 -0.0592811 0.0097572 -0.0195747 0.0013286 -0.0255279 -0.816815 -0.597501 3.78034 0.380846 -2.84371 3.5162 0.01 
142 1 15 -0.0118826 -0.0621659 0.0173993 -0.0311632 -0.0148678 -0.0373715 0 0 0 0.380846 -2.84371 3.5162 0.01 
143 1 15 -0.0156611 -0.0650506 0.0250413 -0.0427516 -0.0310641 -0.049215 0 0 0 0.380846 -2.84371 3.5162 0.01 
144 1 15 -0.0194396 -0.0679354 0.0326834 -0.0543401 -0.0472605 -0.0610586 0.00284877 -0.0192219 -0.0098834 0.380846 -2.84371 3.5162 0.01 
145 1 15 -0.0232181 -0.0708201 0.0403255 -0.0659285 -0.0634569 -0.0729022 0.0181974 -0.124277 -0.068907 0.380846 -2.84371 3.5162 0.01 
146 1 15 -0.0269966 -0.0737049 0.0479675 -0.0775169 -0.0796533 -0.0847457 0.012146 -0.247294 -0.192207 0.380846 -2.84371 3.5162 0.01 
147 1 15 -0.0307751 -0.0765897 0.0556096 -0.0891054 -0.0958496 -0.0965893 -0.350722 -0.208723 -0.701098 0.380846 -2.84371 3.5162 0.01 
148 1 15 -0.0345535 -0.0794744 0.0632517 -0.100694 -0.112046 -0.108433 0.108658 -0.396232 0.0930538 0.380846 -2.84371 3.5162 0.01 
149 1 15 -0.038332 -0.0823592 0.0708938 -0.112282 -0.128242 -0.120276 -0.591441 0.782115 -0.270102 0.380846 -2.84371 3.5162 0.01 
150 1 15 -0.0421105 -0.0852439 0.0785358 -0.123871 -0.144439 -0.13212 0.966088 0.693846 -0.986475 0.380846 -2.84371 3.5162 0.01 
151 1 16 -0.041656 0.178775 0.0117117 -0.0828185 -0.0433977 0.121188 0 0 0 -6.98331 0.253609 -0.598478 0.01 
152 1 16 -0.0397916 0.184888 0.0180487 -0.077553 -0.000260442 0.0780275 0.227636 -0.0431147 0.0716039 -6.98331 0.253609 -0.598478 0.01 
153 1 16 -0.0379273 0.191 0.0243856 -0.0722874 0.0428768 0.0348669 0.185981 -0.0273086 0.0540718 -6.98331 0.253609 -0.598478 0.01 
154 1 16 -0.0360629 0.197113 0.0307226 -0.0670219 0.0860141 -0.00829381 -0.147551 -0.0203067 0.254434 -6.98331 0.253609 -0.598478 0.01 
155 1 16 -0.0341985 0.203226 0.0370596 -0.0617564 0.129151 -0.0514545 -0.369545 -0.0260058 0.575288 -6.98331 0.253609 -0.598478 0.01 
156 1 16 -0.0323341 0.209339 0.0433966 -0.0564909 0.172289 -0.0946152 -0.39239 -0.00319822 0.544054 -6.98331 0.253609 -0.598478 0.01 
157 1 16 -0.0304697 0.215452 0.0497335 -0.0512254 0.215426 -0.137776 -0.16654 0.00785443 0.203282 -6.98331 0.253609 -0.598478 0.01 
158 1 16 -0.0286054 0.221565 0.0560705 -0.0459598 0.258563 -0.180937 0 0 0 -6.98331 0.253609 -0.598478 0.01 
159 1 16 -0.026741 0.227677 0.0624075 -0.0406943 0.3017 -0.224097 0 0 0 -6.98331 0.253609 -0.598478 0.01 
160 1 16 -0.0248766 0.23379 0.0687445 -0.0354288 0.344838 -0.267258 0.0337938 -0.0050845 -0.0512346 -6.98331 0.253609 -0.598478 0.01 
161 1 17 0.0744944 0.0895373 0.00981621 0.00865129 -0.00691866 -0.0114268 0.633957 -0.266446 2.34012 0.893008 1.22592 2.00195 0.01 
162 1 17 0.0779218 0.0877247 0.0179383 0.022237 -0.00731033 -0.0172471 0 0 0 0.893008 1.22592 2.00195 0.01 
163 1 17 0.0813491 0.0859121 0.0260603 0.0358227 -0.00770201 -0.0230674 0 0 0 0.893008 1.22592 2.00195 0.01 
164 1 17 0.0847765 0.0840995 0.0341824 0.0494085 -0.00809368 -0.0288878 0 0 0 0.893008 1.22592 2.00195 0.01 
165 1 17 0.0882038 0.0822869 0.0423044 0.0629942 -0.00848535 -0.0347081 0 0 0 0.893008 1.22592 2.00195 0.01 
166 1 17 0.0916312 0.0804743 0.0504265 0.0765799 -0.00887703 -0.0405284 0 0 0 0.893008 1.22592 2.00195 0.01 
167 1 17 0.0950585 0.0786617 0.0585485 0.0901656 -0.0092687 -0.0463487 0.285039 -0.26154 -0.442858 0.893008 1.22592 2.00195 0.01 
168 1 17 0.0984859 0.0768491 0.0666706 0.103751 -0.00966037 -0.0521691 0.283062 -0.248392 -0.41527 0.893008 1.22592 2.00195 0.01 
169 1 17 0.101913 0.0750365 0.0747926 0.117337 -0.010052 -0.0579894 0 0 0 0.893008 1.22592 2.00195 0.01 
170 1 17 0.105341 0.0732239 0.0829147 0.130923 -0.0104437 -0.0638097 -0.856728 0.736445 -0.790016 0.893008 1.22592 2.00195 0.01 
171 1 18 -0.326559 -0.0442623 0.0089741 0.128044 0.120636 0.255923 2.18716 3.2271 18.647 -7.31278 -7.59777 -11.3958 0.01 
172 1 18 -0.323052 -0.0422068 0.017004 0.0904591 0.139398 0.267532 0 0 0 -7.31278 -7.59777 -11.3958 0.01 
173 1 18 -0.319546 -0.0401512 0.0250339 0.0528746 0.15816 0.279142 0 0 0 -7.31278 -7.59777 -11.3958 0.01 
174 1 18 -0.316039 -0.0380956 0.0330638 0.0152902 0.176921 0.290752 0 0 0 -7.31278 -7.59777 -11.3958 0.01 
175 1 18 -0.312533 -0.0360401 0.0410937 -0.0222943 0.195683 0.302361 0 0 0 -7.31278 -7.59777 -11.3958 0.01 
176 1 18 -0.309026 -0.0339845 0.0491236 -0.0598787 0.214444 0.313971 0 0 0 -7.31278 -7.59777 -11.3958 0.01 
177 1 18 -0.30552 -0.0319289 0.0571534 -0.0974632 0.233206 0.32558 0 0 0 -7.31278 -7.59777 -11.3958 0.01 
178 1 18 -0.302013 -0.0298734 0.0651833 -0.135048 0.251967 0.33719 0 0 0 -7.31278 -7.59777 -11.3958 0.01 
179 1 18 -0.298507 -0.0278178 0.0732132 -0.172632 0.270729 0.3488 0 0 0 -7.31278 -7.59777 -11.3958 0.01 
180 1 18 -0.295 -0.0257622 0.0812431 -0.210217 0.289491 0.360409 -3.40893 -7.10936 -6.97981 -7.31278 -7.59777 -11.3958 0.01 
181 1 19 0.0173435 0.209483 0.0913749 -0.0225905 0.386777 -0.206191 0.153568 0.00664985 -0.0636735 0.981868 -9.87969 8.79364 0.01 
182 1 19 0.0171561 0.202486 0.0970323 -0.0169551 0.379575 -0.214912 -0.201875 0.0168948 0.427711 0.981868 -9.87969 8.79364 0.01 
183 1 19 0.0169688 0.195489 0.10269 -0.0113197 0.372372 -0.223634 0 0 0 0.981868 -9.87969 8.79364 0.01 
184 1 19 0.0167814 0.188492 0.108347 -0.00568423 0.36517 -0.232355 0 0 0 0.981868 -9.87969 8.79364 0.01 
185 1 19 0.016594 0.181495 0.114005 -4.87959e-05 0.357967 -0.241076 0 0 0 0.981868 -9.87969 8.79364 0.01 
186 1 19 0.0164067 0.174498 0.119662 0.00558663 0.350765 -0.249797 0 0 0 0.981868 -9.87969 8.79364 0.01 
187 1 19 0.0162193 0.167501 0.12532 0.0112221 0.343563 -0.258518 0 0 0 0.981868 -9.87969 8.79364 0.01 
188 1 19 0.016032 0.160504 0.130977 0.0168575 0.33636 -0.26724 0 0 0 0.981868 -9.87969 8.79364 0.01 
189 1 19 0.0158446 0.153507 0.136634 0.0224929 0.329158 -0.275961 0 0 0 0.981868 -9.87969 8.79364 0.01 
190 1 19 0.0156572 0.14651 0.142292 0.0281284 0.321955 -0.284682 0.000992308 0.0529228 0.100682 0.981868 -9.87969 8.79364 0.01 
191 1 20 -0.00903527 0.192713 0.0111134 0.183134 0.067591 0.0174004 -0.00837692 -0.00604475 0.00170162 -4.36988 -10.9867 -1.7938 0.01 
192 1 20 -0.00656243 0.199554 0.0164138 0.137171 0.0863172 0.0146769 0 0 0 -4.36988 -10.9867 -1.7938 0.01 
193 1 20 -0.00408959 0.206394 0.0217142 0.0912081 0.105043 0.0119534 -0.0253924 -0.50194 0.678165 -4.36988 -10.9867 -1.7938 0.01 
194 1 20 -0.00161675 0.213234 0.0270145 0.0452452 0.123769 0.00922997 -0.0143585 -0.296808 0.413867 -4.36988 -10.9867 -1.7938 0.01 
195 1 20 0.000856096 0.220075 0.0323149 -0.000717759 0.142496 0.0065065 0.133091 -0.202674 0.0781281 -4.36988 -10.9867 -1.7938 0.01 
196 1 20 0.00332894 0.226915 0.0376153 -0.0466807 0.161222 0.00378304 1.12661 0.102692 -1.03853 -4.36988 -10.9867 -1.7938 0.01 
197 1 20 0.00580178 0.233756 0.0429156 -0.0926436 0.179948 0.00105958 0.355202 0.595828 -0.404357 -4.36988 -10.9867 -1.7938 0.01 
198 1 20 0.00827462 0.240596 0.048216 -0.138607 0.198674 -0.00166389 -0.421502 0.59021 0.00355957 -4.36988 -10.9867 -1.7938 0.01 
199 1 20 0.0107475 0.247436 0.0535164 -0.18457 0.2174 -0.00438735 -0.347615 0.105644 0.726664 -4.36988 -10.9867 -1.7938 0.01 
200 1 20 0.0132203 0.254277 0.0588167 -0.230532 0.236126 -0.00711082 -0.454559 -0.165623 0.714974 -4.36988 -10.9867 -1.7938 0.01 
201 1 21 0.012451 0.00596784 0.011121 0.0258379 0.0170463 -0.0239208 -0.0011988 0.0598112 -0.0236245 -1.87446 -2.74026 -2.17923 0.01 
202 1 21 0.0102848 0.0120742 0.0173675 0.0220279 0.0334758 -0.041303 0 0 0 -1.87446 -2.74026 -2.17923 0.01 
203 1 21 0.00811859 0.0181806 0.0236141 0.0182179 0.0499054 -0.0586851 0.0326967 -0.000615684 0.786467 -1.87446 -2.74026 -2.17923 0.01 
204 1 21 0.00595239 0.024287 0.0298606 0.014408 0.0663349 -0.0760673 0 0 0 -1.87446 -2.74026 -2.17923 0.01 
205 1 21 0.00378619 0.0303934 0.0361072 0.010598 0.0827644 -0.0934494 -0.0972157 0.0483218 -0.127208 -1.87446 -2.74026 -2.17923 0.01 
206 1 21 0.00162 0.0364999 0.0423537 0.00678801 0.099194 -0.110832 0 0 0 -1.87446 -2.74026 -2.17923 0.01 
207 1 21 -0.000546199 0.0426063 0.0486003 0.00297804 0.115623 -0.128214 0.232519 -0.0562002 0.222966 -1.87446 -2.74026 -2.17923 0.01 
208 1 21 -0.00271239 0.0487127 0.0548468 -0.000831934 0.132053 -0.145596 0.629083 -0.0216933 0.311493 -1.87446 -2.74026 -2.17923 0.01 
209 1 21 -0.00487859 0.0548191 0.0610934 -0.00464191 0.148483 -0.162978 0.417575 -0.206294 0.0472904 -1.87446 -2.74026 -2.17923 0.01 
210 1 21 -0.00704479 0.0609255 0.0673399 -0.00845188 0.164912 -0.18036 -0.310276 -0.159221 -1.11776 -1.87446 -2.74026 -2.17923 0.01 
211 1 22 0.0175758 0.26309 0.0760192 -0.00981502 0.561754 -0.133054 -0.0433006 0.0586434 0.415709 3.11333 -3.33896 1.4322 0.01 
212 1 22 0.0141878 0.257311 0.0820297 -0.0216074 0.538189 -0.162358 0 0 0 3.11333 -3.33896 1.4322 0.01 
213 1 22 0.0107998 0.251533 0.0880402 -0.0333997 0.514624 -0.191662 0 0 0 3.11333 -3.33896 1.4322 0.01 
214 1 22 0.00741183 0.245754 0.0940507 -0.045192 0.491059 -0.220966 0 0 0 3.11333 -3.33896 1.4322 0.01 
215 1 22 0.00402383 0.239975 0.100061 -0.0569844 0.467494 -0.25027 0 0 0 3.11333 -3.33896 1.4322 0.01 
216 1 22 0.00063583 0.234196 0.106072 -0.0687767 0.443929 -0.279574 0 0 0 3.11333 -3.33896 1.4322 0.01 
217 1 22 -0.00275217 0.228417 0.112082 -0.0805691 0.420364 -0.308878 0.349761 -0.0908068 0.396435 3.11333 -3.33896 1.4322 0.01 
218 1 22 -0.00614016 0.222638 0.118093 -0.0923614 0.396799 -0.338182 0 0 0 3.11333 -3.33896 1.4322 0.01 
219 1 22 -0.00952816 0.216859 0.124103 -0.104154 0.373234 -0.367485 0 0 0 3.11333 -3.33896 1.4322 0.01 
220 1 22 -0.0129162 0.211081 0.130114 -0.115946 0.349669 -0.396789 0 0 0 3.11333 -3.33896 1.4322 0.01 
221 1 23 0.253948 0.0518447 0.0922528 0.461747 0.0578083 -0.363556 0 0 0 4.00899 -4.33028 0.346531 0.01 
222 1 23 0.248578 0.0567336 0.0975692 0.437031 0.034634 -0.367209 0 0 0 4.00899 -4.33028 0.346531 0.01 
223 1 23 0.243208 0.0616226 0.102886 0.412315 0.0114598 -0.370862 0 0 0 4.00899 -4.33028 0.346531 0.01 
224 1 23 0.237839 0.0665115 0.108202 0.3876 -0.0117145 -0.374515 0 0 0 4.00899 -4.33028 0.346531 0.01 
225 1 23 0.232469 0.0714004 0.113518 0.362884 -0.0348888 -0.378168 -0.00981589 0.0899968 -0.0208884 4.00899 -4.33028 0.346531 0.01 
226 1 23 0.227099 0.0762893 0.118835 0.338168 -0.0580631 -0.381821 0 0 0 4.00899 -4.33028 0.346531 0.01 
227 1 23 0.221729 0.0811782 0.124151 0.313452 -0.0812374 -0.385474 0 0 0 4.00899 -4.33028 0.346531 0.01 
228 1 23 0.21636 0.0860671 0.129468 0.288736 -0.104412 -0.389127 0 0 0 4.00899 -4.33028 0.346531 0.01 
229 1 23 0.21099 0.090956 0.134784 0.264021 -0.127586 -0.39278 0 0 0 4.00899 -4.33028 0.346531 0.01 
230 1 23 0.20562 0.0958449 0.140101 0.239305 -0.15076 -0.396432 0 0 0 4.00899 -4.33028 0.346531 0.01 
231 1 24 0.170085 0.0161177 0.00999272 0.268018 -0.374127 -0.0930391 -2.37028 2.84025 0.954481 4.68174 -0.556168 12.8805 0.01 
232 1 24 0.177039 0.0152282 0.0156364 0.276336 -0.310979 -0.0933358 0 0 0 4.68174 -0.556168 12.8805 0.01 
233 1 24 0.183993 0.0143387 0.0212801 0.284654 -0.247831 -0.0936326 -0.398821 -0.465292 0.582448 4.68174 -0.556168 12.8805 0.01 
234 1 24 0.190947 0.0134492 0.0269238 0.292972 -0.184683 -0.0939293 0 0 0 4.68174 -0.556168 12.8805 0.01 
235 1 24 0.197901 0.0125597 0.0325675 0.30129 -0.121535 -0.0942261 0 0 0 4.68174 -0.556168 12.8805 0.01 
236 1 24 0.204855 0.0116703 0.0382112 0.309608 -0.0583875 -0.0945228 0.00476959 0.00874962 -0.0252127 4.68174 -0.556168 12.8805 0.01 
237 1 24 0.211809 0.0107808 0.0438549 0.317927 0.0047605 -0.0948195 0.240411 0.126363 -1.76355 4.68174 -0.556168 12.8805 0.01 
238 1 24 0.218763 0.0098913 0.0494986 0.326245 0.0679085 -0.0951163 -0.0609879 0.527179 0.898194 4.68174 -0.556168 12.8805 0.01 
239 1 24 0.225717 0.00900182 0.0551423 0.334563 0.131056 -0.095413 -0.102806 0.478658 1.27869 4.68174 -0.556168 12.8805 0.01 
240 1 24 0.232671 0.00811234 0.060786 0.342881 0.194204 -0.0957098 0.405019 -0.595881 0.0439975 4.68174 -0.556168 12.8805 0.01 
241 1 25 0.141114 -0.205212 0.0716261 0.0752538 -0.326325 -0.534395 0 0 0 4.78857 12.4728 15.4028 0.01 
242 1 25 0.1426 -0.200716 0.0792793 0.101454 -0.340075 -0.531406 0 0 0 4.78857 12.4728 15.4028 0.01 
243 1 25 0.144087 -0.19622 0.0869326 0.127655 -0.353824 -0.528417 0 0 0 4.78857 12.4728 15.4028 0.01 
244 1 25 0.145574 -0.191723 0.0945859 0.153856 -0.367574 -0.525429 0.216589 0.0244052 0.113001 4.78857 12.4728 15.4028 0.01 
245 1 25 0.14706 -0.187227 0.102239 0.180056 -0.381324 -0.52244 0 0 0 4.78857 12.4728 15.4028 0.01 
246 1 25 0.148547 -0.182731 0.109892 0.206257 -0.395074 -0.519451 0 0 0 4.78857 12.4728 15.4028 0.01 
247 1 25 0.150034 -0.178234 0.117546 0.232457 -0.408823 -0.516463 0.0975207 -0.250849 0.234585 4.78857 12.4728 15.4028 0.01 
248 1 25 0.15152 -0.173738 0.125199 0.258658 -0.422573 -0.513474 0 0 0 4.78857 12.4728 15.4028 0.01 
249 1 25 0.153007 -0.169241 0.132852 0.284859 -0.436323 -0.510485 0 0 0 4.78857 12.4728 15.4028 0.01 
250 1 25 0.154493 -0.164745 0.140505 0.311059 -0.450073 -0.507497 0 0 0 4.78857 12.4728 15.4028 0.01 
251 1 26 -0.00189249 -0.173278 0.0103598 0.163953 0.0645717 -0.0613284 0 0 0 5.59428 -3.90004 -1.44384 0.01 
252 1 26 -0.00143665 -0.179854 0.016488 0.130559 0.0296307 -0.096336 -0.0551331 0.00980857 0.0505592 5.59428 -3.90004 -1.44384 0.01 
253 1 26 -0.000980807 -0.186429 0.0226161 0.097165 -0.00531025 -0.131344 -0.0470299 0.0967346 0.224571 5.59428 -3.90004 -1.44384 0.01 
254 1 26 -0.000524966 -0.193005 0.0287443 0.0637709 -0.0402512 -0.166351 0.0540201 0.260419 1.17902 5.59428 -3.90004 -1.44384 0.01 
255 1 26 -6.91245e-05 -0.199581 0.0348725 0.0303767 -0.0751922 -0.201359 0.258901 -0.673363 -1.48919 5.59428 -3.90004 -1.44384 0.01 