ITEM: TIMESTEP
27000
ITEM: NUMBER OF ATOMS
6300
ITEM: BOX BOUNDS mm mm mm
-0.355778 0.3428
-0.326934 0.370676
0 0.5
ITEM: ATOMS id type mol x y z vx vy vz fx fy fz omegax omegay omegaz radius 
1 1 1 -0.123973 -0.113151 0.0870683 -0.146485 0.0623492 -0.112712 -0.945314 -1.22963 2.56338 4.81141 0.588578 -0.724194 0.01 
2 1 1 -0.124109 -0.116334 0.0954853 -0.143836 0.0219504 -0.127949 -0.0603472 0.145748 0.1381 4.81141 0.588578 -0.724194 0.01 
3 1 1 -0.124246 -0.119518 0.103902 -0.141188 -0.0184484 -0.143186 0.221368 0.289418 -0.24201 4.81141 0.588578 -0.724194 0.01 
4 1 1 -0.124383 -0.122702 0.112319 -0.138539 -0.0588472 -0.158423 0 0 0 4.81141 0.588578 -0.724194 0.01 
5 1 1 -0.124519 -0.125885 0.120736 -0.13589 -0.0992461 -0.17366 0 0 0 4.81141 0.588578 -0.724194 0.01 
6 1 1 -0.124656 -0.129069 0.129153 -0.133242 -0.139645 -0.188897 0 0 0 4.81141 0.588578 -0.724194 0.01 
7 1 1 -0.124793 -0.132252 0.13757 -0.130593 -0.180044 -0.204134 0 0 0 4.81141 0.588578 -0.724194 0.01 
8 1 1 -0.124929 -0.135436 0.145987 -0.127945 -0.220443 -0.219371 0 0 0 4.81141 0.588578 -0.724194 0.01 
9 1 1 -0.125066 -0.138619 0.154404 -0.125296 -0.260841 -0.234607 0 0 0 4.81141 0.588578 -0.724194 0.01 
10 1 1 -0.125203 -0.141803 0.162821 -0.122648 -0.30124 -0.249844 0 0 0 4.81141 0.588578 -0.724194 0.01 
11 1 2 -0.0216648 -0.120653 0.0375687 0.0332708 -0.0951925 -0.109198 -0.48519 0.711513 0.996962 2.29465 -0.0290692 -1.08412 0.01 
12 1 2 -0.0239443 -0.120964 0.0462697 0.0326808 -0.112687 -0.109978 0 0 0 2.29465 -0.0290692 -1.08412 0.01 
13 1 2 -0.0262239 -0.121275 0.0549706 0.0320908 -0.130181 -0.110758 0 0 0 2.29465 -0.0290692 -1.08412 0.01 
14 1 2 -0.0285034 -0.121586 0.0636716 0.0315008 -0.147676 -0.111538 0 0 0 2.29465 -0.0290692 -1.08412 0.01 
15 1 2 -0.0307829 -0.121897 0.0723726 0.0309107 -0.16517 -0.112317 -0.569837 -0.38693 -0.557365 2.29465 -0.0290692 -1.08412 0.01 
16 1 2 -0.0330625 -0.122208 0.0810736 0.0303207 -0.182665 -0.113097 0.383994 -1.90001 -0.860135 2.29465 -0.0290692 -1.08412 0.01 
17 1 2 -0.035342 -0.122519 0.0897746 0.0297307 -0.200159 -0.113877 1.35693 0.794901 1.32412 2.29465 -0.0290692 -1.08412 0.01 
18 1 2 -0.0376215 -0.12283 0.0984755 0.0291407 -0.217653 -0.114657 0 0 0 2.29465 -0.0290692 -1.08412 0.01 
19 1 2 -0.0399011 -0.123141 0.107177 0.0285507 -0.235148 -0.115436 -0.818424 0.561314 -0.596487 2.29465 -0.0290692 -1.08412 0.01 
20 1 2 -0.0421806 -0.123452 0.115877 0.0279606 -0.252642 -0.116216 -0.230377 -0.0126297 -0.108573 2.29465 -0.0290692 -1.08412 0.01 
21 1 3 -0.0289515 -0.0355612 0.00998532 -0.0598286 -0.129125 -0.0109285 0.0579052 0.0673367 0.17762 2.80033 2.72107 -5.19838 0.01 
22 1 3 -0.0317855 -0.0405589 0.0169129 -0.0669581 -0.133792 -0.0172121 0 0 0 2.80033 2.72107 -5.19838 0.01 
23 1 3 -0.0346195 -0.0455566 0.0238405 -0.0740876 -0.13846 -0.0234958 0 0 0 2.80033 2.72107 -5.19838 0.01 
24 1 3 -0.0374535 -0.0505543 0.0307681 -0.0812171 -0.143127 -0.0297795 0 0 0 2.80033 2.72107 -5.19838 0.01 
25 1 3 -0.0402875 -0.055552 0.0376957 -0.0883466 -0.147794 -0.0360632 0.299985 -0.287453 0.0913723 2.80033 2.72107 -5.19838 0.01 
26 1 3 -0.0431215 -0.0605497 0.0446232 -0.0954761 -0.152461 -0.0423468 0 0 0 2.80033 2.72107 -5.19838 0.01 
27 1 3 -0.0459555 -0.0655474 0.0515508 -0.102606 -0.157129 -0.0486305 0 0 0 2.80033 2.72107 -5.19838 0.01 
28 1 3 -0.0487895 -0.0705451 0.0584784 -0.109735 -0.161796 -0.0549142 0 0 0 2.80033 2.72107 -5.19838 0.01 
29 1 3 -0.0516235 -0.0755428 0.065406 -0.116865 -0.166463 -0.0611979 -1.33741 1.34135 1.06855 2.80033 2.72107 -5.19838 0.01 
30 1 3 -0.0544575 -0.0805405 0.0723336 -0.123994 -0.171131 -0.0674815 0.896745 -1.03371 -0.325822 2.80033 2.72107 -5.19838 0.01 
31 1 4 -0.0894879 0.114411 0.00985387 -0.0346893 0.0534123 -0.000451083 -0.176182 0.56658 1.48633 -5.36603 -3.51982 -1.74418 0.01 
32 1 4 -0.0907203 0.118481 0.017786 -0.0555104 0.0981255 -0.0266272 0 0 0 -5.36603 -3.51982 -1.74418 0.01 
33 1 4 -0.0919526 0.12255 0.0257181 -0.0763315 0.142839 -0.0528033 0 0 0 -5.36603 -3.51982 -1.74418 0.01 
34 1 4 -0.0931849 0.12662 0.0336502 -0.0971527 0.187552 -0.0789795 0 0 0 -5.36603 -3.51982 -1.74418 0.01 
35 1 4 -0.0944172 0.13069 0.0415823 -0.117974 0.232265 -0.105156 0 0 0 -5.36603 -3.51982 -1.74418 0.01 
36 1 4 -0.0956495 0.13476 0.0495144 -0.138795 0.276979 -0.131332 0 0 0 -5.36603 -3.51982 -1.74418 0.01 
37 1 4 -0.0968818 0.13883 0.0574465 -0.159616 0.321692 -0.157508 0 0 0 -5.36603 -3.51982 -1.74418 0.01 
38 1 4 -0.0981142 0.142899 0.0653786 -0.180437 0.366405 -0.183684 0 0 0 -5.36603 -3.51982 -1.74418 0.01 
39 1 4 -0.0993465 0.146969 0.0733107 -0.201258 0.411118 -0.20986 -0.00928987 0.0908336 -0.0798126 -5.36603 -3.51982 -1.74418 0.01 
40 1 4 -0.100579 0.151039 0.0812428 -0.22208 0.455832 -0.236036 -0.0507268 -0.526544 -0.745695 -5.36603 -3.51982 -1.74418 0.01 
41 1 5 0.079035 -0.135144 0.00986384 -0.000896092 -0.0160249 -0.00688468 -0.575329 0.334138 1.47159 1.40752 -0.508307 -0.835378 0.01 
42 1 5 0.079634 -0.134001 0.0187707 -0.00446801 -0.029062 -0.00497025 0 0 0 1.40752 -0.508307 -0.835378 0.01 
43 1 5 0.080233 -0.132857 0.0276776 -0.00803992 -0.042099 -0.00305581 1.06312 -0.292058 -0.453598 1.40752 -0.508307 -0.835378 0.01 
44 1 5 0.080832 -0.131713 0.0365845 -0.0116118 -0.0551361 -0.00114137 0 0 0 1.40752 -0.508307 -0.835378 0.01 
45 1 5 0.081431 -0.130569 0.0454914 -0.0151838 -0.0681731 0.000773063 0 0 0 1.40752 -0.508307 -0.835378 0.01 
46 1 5 0.0820301 -0.129425 0.0543983 -0.0187557 -0.0812102 0.0026875 0 0 0 1.40752 -0.508307 -0.835378 0.01 
47 1 5 0.0826291 -0.128281 0.0633052 -0.0223276 -0.0942473 0.00460194 0 0 0 1.40752 -0.508307 -0.835378 0.01 
48 1 5 0.0832281 -0.127138 0.0722121 -0.0258995 -0.107284 0.00651637 0 0 0 1.40752 -0.508307 -0.835378 0.01 
49 1 5 0.0838271 -0.125994 0.081119 -0.0294714 -0.120321 0.00843081 0 0 0 1.40752 -0.508307 -0.835378 0.01 
50 1 5 0.0844261 -0.12485 0.0900259 -0.0330433 -0.133358 0.0103452 -0.0847522 -0.110294 -0.539602 1.40752 -0.508307 -0.835378 0.01 
51 1 6 0.183073 -0.0323207 0.0115481 0.149163 0.125026 0.0371385 0 0 0 15.4526 4.37871 -10.3748 0.01 
52 1 6 0.177592 -0.0366567 0.0172192 0.129011 0.094253 -0.00586473 0 0 0 15.4526 4.37871 -10.3748 0.01 
53 1 6 0.172112 -0.0409926 0.0228904 0.108859 0.0634798 -0.0488679 0 0 0 15.4526 4.37871 -10.3748 0.01 
54 1 6 0.166631 -0.0453286 0.0285615 0.0887072 0.0327065 -0.0918711 0 0 0 15.4526 4.37871 -10.3748 0.01 
55 1 6 0.16115 -0.0496645 0.0342327 0.0685552 0.00193321 -0.134874 0.16011 0.0563769 0.233554 15.4526 4.37871 -10.3748 0.01 
56 1 6 0.15567 -0.0540005 0.0399038 0.0484032 -0.0288401 -0.177877 0 0 0 15.4526 4.37871 -10.3748 0.01 
57 1 6 0.150189 -0.0583364 0.045575 0.0282512 -0.0596133 -0.220881 -0.417702 0.317863 -0.264481 15.4526 4.37871 -10.3748 0.01 
58 1 6 0.144708 -0.0626723 0.0512461 0.00809916 -0.0903866 -0.263884 0 0 0 15.4526 4.37871 -10.3748 0.01 
59 1 6 0.139228 -0.0670083 0.0569173 -0.0120528 -0.12116 -0.306887 -0.122399 -0.626269 -0.208261 15.4526 4.37871 -10.3748 0.01 
60 1 6 0.133747 -0.0713442 0.0625884 -0.0322048 -0.151933 -0.34989 -0.00159167 0.00982635 0.00569545 15.4526 4.37871 -10.3748 0.01 
61 1 7 -0.0383998 0.219974 0.0098104 0.0137961 0.041314 0.00074076 -0.0877131 0.34855 2.16562 -4.20938 1.11243 -2.34921 0.01 
62 1 7 -0.0373194 0.221984 0.0185162 0.0282033 0.0754221 -0.00892317 0 0 0 -4.20938 1.11243 -2.34921 0.01 
63 1 7 -0.036239 0.223994 0.0272221 0.0426105 0.10953 -0.0185871 0 0 0 -4.20938 1.11243 -2.34921 0.01 
64 1 7 -0.0351586 0.226005 0.0359279 0.0570177 0.143638 -0.028251 0 0 0 -4.20938 1.11243 -2.34921 0.01 
65 1 7 -0.0340782 0.228015 0.0446337 0.0714249 0.177746 -0.037915 0 0 0 -4.20938 1.11243 -2.34921 0.01 
66 1 7 -0.0329978 0.230025 0.0533395 0.0858321 0.211854 -0.0475789 0 0 0 -4.20938 1.11243 -2.34921 0.01 
67 1 7 -0.0319174 0.232036 0.0620454 0.100239 0.245962 -0.0572428 0 0 0 -4.20938 1.11243 -2.34921 0.01 
68 1 7 -0.0308371 0.234046 0.0707512 0.114647 0.280071 -0.0669068 0 0 0 -4.20938 1.11243 -2.34921 0.01 
69 1 7 -0.0297567 0.236056 0.079457 0.129054 0.314179 -0.0765707 0.546706 -0.319814 -0.45318 -4.20938 1.11243 -2.34921 0.01 
70 1 7 -0.0286763 0.238066 0.0881629 0.143461 0.348287 -0.0862347 -0.76436 -0.176724 -1.06334 -4.20938 1.11243 -2.34921 0.01 
71 1 8 0.13465 -0.148596 0.104409 0.0282881 -0.296496 -0.0345929 0.00394159 -0.109097 0.288513 -2.9875 7.4668 0.529788 0.01 
72 1 8 0.139106 -0.148005 0.112206 0.0861945 -0.270842 -0.0696304 0 0 0 -2.9875 7.4668 0.529788 0.01 
73 1 8 0.143562 -0.147414 0.120003 0.144101 -0.245187 -0.104668 0 0 0 -2.9875 7.4668 0.529788 0.01 
74 1 8 0.148018 -0.146823 0.1278 0.202007 -0.219532 -0.139705 0 0 0 -2.9875 7.4668 0.529788 0.01 
75 1 8 0.152474 -0.146232 0.135597 0.259914 -0.193878 -0.174743 0 0 0 -2.9875 7.4668 0.529788 0.01 
76 1 8 0.15693 -0.145641 0.143394 0.31782 -0.168223 -0.20978 0 0 0 -2.9875 7.4668 0.529788 0.01 
77 1 8 0.161386 -0.14505 0.151191 0.375727 -0.142568 -0.244818 0 0 0 -2.9875 7.4668 0.529788 0.01 
78 1 8 0.165842 -0.144459 0.158989 0.433633 -0.116914 -0.279855 0 0 0 -2.9875 7.4668 0.529788 0.01 
79 1 8 0.170298 -0.143868 0.166786 0.491539 -0.0912592 -0.314893 0 0 0 -2.9875 7.4668 0.529788 0.01 
80 1 8 0.174753 -0.143277 0.174583 0.549446 -0.0656045 -0.34993 0 0 0 -2.9875 7.4668 0.529788 0.01 
81 1 9 -0.128097 0.0422253 0.0752823 0.210094 -0.092639 -0.674155 0 0 0 -16.2564 -6.13259 -1.64007 0.01 
82 1 9 -0.12109 0.0408804 0.0807679 0.174247 -0.0149549 -0.60932 0 0 0 -16.2564 -6.13259 -1.64007 0.01 
83 1 9 -0.114083 0.0395355 0.0862535 0.1384 0.0627292 -0.544485 0 0 0 -16.2564 -6.13259 -1.64007 0.01 
84 1 9 -0.107076 0.0381905 0.0917391 0.102553 0.140413 -0.47965 0 0 0 -16.2564 -6.13259 -1.64007 0.01 
85 1 9 -0.100069 0.0368456 0.0972248 0.0667063 0.218097 -0.414815 0 0 0 -16.2564 -6.13259 -1.64007 0.01 
86 1 9 -0.0930615 0.0355007 0.10271 0.0308595 0.295781 -0.34998 -2.78737 -1.35349 9.65868 -16.2564 -6.13259 -1.64007 0.01 
87 1 9 -0.0860544 0.0341558 0.108196 -0.0049873 0.373466 -0.285145 0 0 0 -16.2564 -6.13259 -1.64007 0.01 
88 1 9 -0.0790473 0.0328109 0.113682 -0.0408341 0.45115 -0.22031 0 0 0 -16.2564 -6.13259 -1.64007 0.01 
89 1 9 -0.0720402 0.031466 0.119167 -0.0766809 0.528834 -0.155475 0.368224 -0.328073 -0.114681 -16.2564 -6.13259 -1.64007 0.01 
90 1 9 -0.0650332 0.0301211 0.124653 -0.112528 0.606518 -0.0906399 0 0 0 -16.2564 -6.13259 -1.64007 0.01 
91 1 10 0.0594485 0.210658 0.1072 -0.0159798 0.207756 -0.147134 -0.513845 0.368144 0.790829 -10.972 2.40457 15.4322 0.01 
92 1 10 0.0555986 0.213242 0.114913 -0.0373018 0.23298 -0.166224 0 0 0 -10.972 2.40457 15.4322 0.01 
93 1 10 0.0517487 0.215825 0.122627 -0.0586237 0.258204 -0.185314 0 0 0 -10.972 2.40457 15.4322 0.01 
94 1 10 0.0478988 0.218409 0.130341 -0.0799457 0.283428 -0.204404 0.329592 0.709699 0.568339 -10.972 2.40457 15.4322 0.01 
95 1 10 0.0440489 0.220993 0.138055 -0.101268 0.308652 -0.223494 -0.0592682 -0.0933637 0.0278912 -10.972 2.40457 15.4322 0.01 
96 1 10 0.040199 0.223576 0.145769 -0.12259 0.333876 -0.242584 0 0 0 -10.972 2.40457 15.4322 0.01 
97 1 10 0.0363491 0.22616 0.153483 -0.143912 0.3591 -0.261673 0 0 0 -10.972 2.40457 15.4322 0.01 
98 1 10 0.0324991 0.228743 0.161196 -0.165234 0.384324 -0.280763 0 0 0 -10.972 2.40457 15.4322 0.01 
99 1 10 0.0286492 0.231327 0.16891 -0.186556 0.409548 -0.299853 0 0 0 -10.972 2.40457 15.4322 0.01 
100 1 10 0.0247993 0.233911 0.176624 -0.207878 0.434772 -0.318943 0 0 0 -10.972 2.40457 15.4322 0.01 
101 1 11 -0.239498 -0.0853837 0.0149663 -0.206178 0.249707 -0.438343 0 0 0 6.89539 0.791362 -5.63833 0.01 
102 1 11 -0.237718 -0.0887313 0.0231287 -0.218594 0.183387 -0.462836 -0.00365812 -0.0299903 0.00350167 6.89539 0.791362 -5.63833 0.01 
103 1 11 -0.235938 -0.092079 0.0312911 -0.23101 0.117067 -0.487328 0 0 0 6.89539 0.791362 -5.63833 0.01 
104 1 11 -0.234158 -0.0954266 0.0394534 -0.243425 0.0507475 -0.51182 -0.534252 -2.29815 2.52729 6.89539 0.791362 -5.63833 0.01 
105 1 11 -0.232378 -0.0987743 0.0476158 -0.255841 -0.0155724 -0.536312 0 0 0 6.89539 0.791362 -5.63833 0.01 
106 1 11 -0.230597 -0.102122 0.0557781 -0.268257 -0.0818924 -0.560804 0.11858 -0.0520109 -0.00761381 6.89539 0.791362 -5.63833 0.01 
107 1 11 -0.228817 -0.10547 0.0639405 -0.280673 -0.148212 -0.585296 0 0 0 6.89539 0.791362 -5.63833 0.01 
108 1 11 -0.227037 -0.108817 0.0721029 -0.293089 -0.214532 -0.609789 0 0 0 6.89539 0.791362 -5.63833 0.01 
109 1 11 -0.225257 -0.112165 0.0802652 -0.305504 -0.280852 -0.634281 0 0 0 6.89539 0.791362 -5.63833 0.01 
110 1 11 -0.223477 -0.115513 0.0884276 -0.31792 -0.347172 -0.658773 0 0 0 6.89539 0.791362 -5.63833 0.01 
111 1 12 0.110058 0.0493565 0.0629089 0.193259 0.013695 -0.503915 0 0 0 -0.62074 -6.22252 -6.74427 0.01 
112 1 12 0.11089 0.0521805 0.0714138 0.159384 0.0133664 -0.500494 0 0 0 -0.62074 -6.22252 -6.74427 0.01 
113 1 12 0.111721 0.0550046 0.0799187 0.125508 0.0130379 -0.497073 0 0 0 -0.62074 -6.22252 -6.74427 0.01 
114 1 12 0.112553 0.0578286 0.0884236 0.0916318 0.0127093 -0.493652 0 0 0 -0.62074 -6.22252 -6.74427 0.01 
115 1 12 0.113385 0.0606526 0.0969285 0.0577559 0.0123807 -0.490231 0 0 0 -0.62074 -6.22252 -6.74427 0.01 
116 1 12 0.114216 0.0634767 0.105433 0.0238801 0.0120521 -0.48681 0 0 0 -0.62074 -6.22252 -6.74427 0.01 
117 1 12 0.115048 0.0663007 0.113938 -0.00999583 0.0117236 -0.483389 0 0 0 -0.62074 -6.22252 -6.74427 0.01 
118 1 12 0.115879 0.0691247 0.122443 -0.0438717 0.011395 -0.479968 0 0 0 -0.62074 -6.22252 -6.74427 0.01 
119 1 12 0.116711 0.0719488 0.130948 -0.0777476 0.0110664 -0.476546 0 0 0 -0.62074 -6.22252 -6.74427 0.01 
120 1 12 0.117542 0.0747728 0.139453 -0.111623 0.0107379 -0.473125 0 0 0 -0.62074 -6.22252 -6.74427 0.01 
121 1 13 -0.00365644 0.254952 0.0866257 0.15948 0.384035 -0.109787 -0.389503 0.0625654 -0.28797 -2.02821 -1.79186 1.553 0.01 
122 1 13 -0.00834019 0.250112 0.0925953 0.156299 0.388869 -0.108363 -0.0271608 -0.0105678 -0.122173 -2.02821 -1.79186 1.553 0.01 
123 1 13 -0.013024 0.245272 0.098565 0.153119 0.393703 -0.106939 0 0 0 -2.02821 -1.79186 1.553 0.01 
124 1 13 -0.0177077 0.240432 0.104535 0.149939 0.398537 -0.105515 0.875008 0.142116 0.835303 -2.02821 -1.79186 1.553 0.01 
125 1 13 -0.0223915 0.235592 0.110504 0.146759 0.403371 -0.104091 0 0 0 -2.02821 -1.79186 1.553 0.01 
126 1 13 -0.0270752 0.230752 0.116474 0.143579 0.408205 -0.102667 0 0 0 -2.02821 -1.79186 1.553 0.01 
127 1 13 -0.031759 0.225912 0.122444 0.140398 0.413039 -0.101243 0 0 0 -2.02821 -1.79186 1.553 0.01 
128 1 13 -0.0364427 0.221072 0.128413 0.137218 0.417872 -0.0998191 0 0 0 -2.02821 -1.79186 1.553 0.01 
129 1 13 -0.0411265 0.216232 0.134383 0.134038 0.422706 -0.0983951 0 0 0 -2.02821 -1.79186 1.553 0.01 
130 1 13 -0.0458102 0.211392 0.140352 0.130858 0.42754 -0.0969711 0 0 0 -2.02821 -1.79186 1.553 0.01 
131 1 14 -0.0480708 0.125043 0.00990444 0.0036842 0.0232892 0.0242635 0.146063 0.213963 0.193787 -3.59011 2.68314 2.12516 0.01 
132 1 14 -0.0455251 0.129011 0.0175713 0.0158248 0.0562241 0.00319068 -0.223513 0.115532 0.0532245 -3.59011 2.68314 2.12516 0.01 
133 1 14 -0.0429794 0.132978 0.0252383 0.0279654 0.0891591 -0.0178822 -0.291808 -0.489475 0.64731 -3.59011 2.68314 2.12516 0.01 
134 1 14 -0.0404338 0.136945 0.0329052 0.040106 0.122094 -0.038955 0 0 0 -3.59011 2.68314 2.12516 0.01 
135 1 14 -0.0378881 0.140912 0.0405721 0.0522466 0.155029 -0.0600278 0 0 0 -3.59011 2.68314 2.12516 0.01 
136 1 14 -0.0353425 0.144879 0.048239 0.0643872 0.187964 -0.0811006 0 0 0 -3.59011 2.68314 2.12516 0.01 
137 1 14 -0.0327968 0.148846 0.0559059 0.0765278 0.220899 -0.102173 0 0 0 -3.59011 2.68314 2.12516 0.01 
138 1 14 -0.0302511 0.152813 0.0635728 0.0886684 0.253834 -0.123246 0 0 0 -3.59011 2.68314 2.12516 0.01 
139 1 14 -0.0277055 0.156781 0.0712397 0.100809 0.286769 -0.144319 0 0 0 -3.59011 2.68314 2.12516 0.01 
140 1 14 -0.0251598 0.160748 0.0789066 0.11295 0.319704 -0.165392 -0.0184633 0.172252 0.215169 -3.59011 2.68314 2.12516 0.01 
141 1 15 -0.00600411 -0.0611456 0.0100371 -0.0746058 0.132967 -0.0292951 0 0 0 1.14502 -2.32317 8.99365 0.01 
142 1 15 -0.00951004 -0.0630804 0.0180972 -0.0759301 0.0922065 -0.0396553 0 0 0 1.14502 -2.32317 8.99365 0.01 
143 1 15 -0.013016 -0.0650151 0.0261573 -0.0772544 0.0514463 -0.0500156 0 0 0 1.14502 -2.32317 8.99365 0.01 
144 1 15 -0.0165219 -0.0669499 0.0342174 -0.0785788 0.0106862 -0.0603758 0 0 0 1.14502 -2.32317 8.99365 0.01 
145 1 15 -0.0200279 -0.0688847 0.0422775 -0.0799031 -0.030074 -0.070736 0.558246 0.894985 1.4039 1.14502 -2.32317 8.99365 0.01 
146 1 15 -0.0235338 -0.0708194 0.0503376 -0.0812274 -0.0708342 -0.0810963 0.020432 0.21886 0.292245 1.14502 -2.32317 8.99365 0.01 
147 1 15 -0.0270397 -0.0727542 0.0583977 -0.0825517 -0.111594 -0.0914565 0 0 0 1.14502 -2.32317 8.99365 0.01 
148 1 15 -0.0305457 -0.074689 0.0664578 -0.0838761 -0.152354 -0.101817 -0.27364 -0.786379 -0.835578 1.14502 -2.32317 8.99365 0.01 
149 1 15 -0.0340516 -0.0766237 0.0745179 -0.0852004 -0.193115 -0.112177 -0.999926 -0.536698 -0.881213 1.14502 -2.32317 8.99365 0.01 
150 1 15 -0.0375575 -0.0785585 0.082578 -0.0865247 -0.233875 -0.122537 0.640615 0.462433 0.784586 1.14502 -2.32317 8.99365 0.01 
151 1 16 -0.0380204 0.179357 0.0101563 -0.0418387 0.0162161 0.0202498 0.286535 0.315419 -0.201174 -4.17925 3.40789 3.82906 0.01 
152 1 16 -0.0366414 0.183433 0.0180611 -0.0305068 0.0545324 -0.00148371 -0.185736 -0.333913 0.38496 -4.17925 3.40789 3.82906 0.01 
153 1 16 -0.0352624 0.187508 0.0259658 -0.019175 0.0928487 -0.0232173 -0.31123 -0.210953 0.317115 -4.17925 3.40789 3.82906 0.01 
154 1 16 -0.0338835 0.191584 0.0338706 -0.00784308 0.131165 -0.0449508 -0.189663 0.0475641 -0.0225322 -4.17925 3.40789 3.82906 0.01 
155 1 16 -0.0325045 0.19566 0.0417754 0.00348881 0.169481 -0.0666843 -0.0665942 0.081668 -0.114346 -4.17925 3.40789 3.82906 0.01 
156 1 16 -0.0311255 0.199736 0.0496802 0.0148207 0.207798 -0.0884179 0.0259368 0.00222838 -0.0474953 -4.17925 3.40789 3.82906 0.01 
157 1 16 -0.0297465 0.203812 0.057585 0.0261526 0.246114 -0.110151 0.0668467 -0.012363 -0.00544797 -4.17925 3.40789 3.82906 0.01 
158 1 16 -0.0283675 0.207888 0.0654898 0.0374845 0.28443 -0.131885 0 0 0 -4.17925 3.40789 3.82906 0.01 
159 1 16 -0.0269885 0.211964 0.0733946 0.0488163 0.322747 -0.153619 0 0 0 -4.17925 3.40789 3.82906 0.01 
160 1 16 -0.0256095 0.21604 0.0812993 0.0601482 0.361063 -0.175352 0.124591 0.0902789 -0.339319 -4.17925 3.40789 3.82906 0.01 
161 1 17 0.0743537 0.0905874 0.00992602 -0.011048 -0.063437 -0.0046591 0.23757 0.0580264 0.614905 5.47938 -0.667153 15.5038 0.01 
162 1 17 0.0770664 0.0887505 0.0183086 0.0118375 -0.0673109 -0.0129141 0 0 0 5.47938 -0.667153 15.5038 0.01 
163 1 17 0.0797791 0.0869137 0.0266911 0.034723 -0.0711847 -0.021169 0 0 0 5.47938 -0.667153 15.5038 0.01 
164 1 17 0.0824918 0.0850768 0.0350737 0.0576086 -0.0750586 -0.029424 0 0 0 5.47938 -0.667153 15.5038 0.01 
165 1 17 0.0852046 0.08324 0.0434562 0.0804941 -0.0789325 -0.0376789 0 0 0 5.47938 -0.667153 15.5038 0.01 
166 1 17 0.0879173 0.0814032 0.0518388 0.10338 -0.0828064 -0.0459339 -0.749267 0.065974 -0.0111997 5.47938 -0.667153 15.5038 0.01 
167 1 17 0.09063 0.0795663 0.0602213 0.126265 -0.0866803 -0.0541888 -1.04494 0.857183 0.543577 5.47938 -0.667153 15.5038 0.01 
168 1 17 0.0933427 0.0777295 0.0686039 0.149151 -0.0905542 -0.0624438 0.276819 -0.101632 -0.183801 5.47938 -0.667153 15.5038 0.01 
169 1 17 0.0960554 0.0758926 0.0769864 0.172036 -0.0944281 -0.0706987 0 0 0 5.47938 -0.667153 15.5038 0.01 
170 1 17 0.0987681 0.0740558 0.085369 0.194922 -0.0983019 -0.0789537 0.288372 0.608964 -0.218111 5.47938 -0.667153 15.5038 0.01 
171 1 18 -0.302822 -0.0446051 0.048301 -0.497279 0.00177924 -0.584468 0 0 0 -4.96085 -3.43885 -8.4153 0.01 
172 1 18 -0.298693 -0.0427044 0.0560685 -0.507995 0.00556236 -0.579697 0 0 0 -4.96085 -3.43885 -8.4153 0.01 
173 1 18 -0.294563 -0.0408036 0.0638361 -0.518711 0.00934548 -0.574926 0 0 0 -4.96085 -3.43885 -8.4153 0.01 
174 1 18 -0.290434 -0.0389029 0.0716036 -0.529427 0.0131286 -0.570154 0 0 0 -4.96085 -3.43885 -8.4153 0.01 
175 1 18 -0.286304 -0.0370021 0.0793712 -0.540143 0.0169117 -0.565383 0 0 0 -4.96085 -3.43885 -8.4153 0.01 
176 1 18 -0.282175 -0.0351014 0.0871387 -0.550859 0.0206948 -0.560612 0 0 0 -4.96085 -3.43885 -8.4153 0.01 
177 1 18 -0.278045 -0.0332007 0.0949063 -0.561575 0.024478 -0.555841 0 0 0 -4.96085 -3.43885 -8.4153 0.01 
178 1 18 -0.273916 -0.0312999 0.102674 -0.572292 0.0282611 -0.551069 0 0 0 -4.96085 -3.43885 -8.4153 0.01 
179 1 18 -0.269786 -0.0293992 0.110441 -0.583008 0.0320442 -0.546298 0 0 0 -4.96085 -3.43885 -8.4153 0.01 
180 1 18 -0.265657 -0.0274985 0.118209 -0.593724 0.0358273 -0.541527 0 0 0 -4.96085 -3.43885 -8.4153 0.01 
181 1 19 0.0176492 0.194209 0.0994356 -0.0135393 0.260843 -0.302429 2.62126 0.471425 3.06108 8.78099 20.1208 -16.7735 0.01 
182 1 19 0.0167978 0.187944 0.105841 0.0102598 0.21888 -0.340307 0 0 0 8.78099 20.1208 -16.7735 0.01 
183 1 19 0.0159463 0.18168 0.112246 0.0340588 0.176916 -0.378186 0 0 0 8.78099 20.1208 -16.7735 0.01 
184 1 19 0.0150949 0.175415 0.118652 0.0578579 0.134953 -0.416065 -2.69042 0.742314 -1.42028 8.78099 20.1208 -16.7735 0.01 
185 1 19 0.0142434 0.16915 0.125057 0.0816569 0.0929896 -0.453944 0 0 0 8.78099 20.1208 -16.7735 0.01 
186 1 19 0.013392 0.162885 0.131462 0.105456 0.0510261 -0.491822 0 0 0 8.78099 20.1208 -16.7735 0.01 
187 1 19 0.0125405 0.156621 0.137868 0.129255 0.0090627 -0.529701 0 0 0 8.78099 20.1208 -16.7735 0.01 
188 1 19 0.0116891 0.150356 0.144273 0.153054 -0.0329007 -0.56758 0 0 0 8.78099 20.1208 -16.7735 0.01 
189 1 19 0.0108376 0.144091 0.150678 0.176853 -0.0748642 -0.605459 0 0 0 8.78099 20.1208 -16.7735 0.01 
190 1 19 0.00998619 0.137826 0.157084 0.200652 -0.116828 -0.643337 2.60747 1.92145 1.93259 8.78099 20.1208 -16.7735 0.01 
191 1 20 -0.00763771 0.190738 0.00996775 -0.0212541 0.0197219 -0.00229666 0.079281 0.0489172 0.186316 -5.00225 2.73714 0.9279 0.01 
192 1 20 -0.00561496 0.19553 0.0173125 -0.00559696 0.0583391 -0.0318038 -0.121892 -0.0039375 0.126813 -5.00225 2.73714 0.9279 0.01 
193 1 20 -0.0035922 0.200322 0.0246573 0.0100602 0.0969564 -0.0613109 -0.0163584 -0.000502936 0.0171013 -5.00225 2.73714 0.9279 0.01 
194 1 20 -0.00156945 0.205114 0.032002 0.0257173 0.135574 -0.0908181 0 0 0 -5.00225 2.73714 0.9279 0.01 
195 1 20 0.000453302 0.209906 0.0393468 0.0413745 0.174191 -0.120325 0 0 0 -5.00225 2.73714 0.9279 0.01 
196 1 20 0.00247605 0.214698 0.0466916 0.0570316 0.212808 -0.149832 0 0 0 -5.00225 2.73714 0.9279 0.01 
197 1 20 0.00449881 0.21949 0.0540363 0.0726888 0.251425 -0.17934 0 0 0 -5.00225 2.73714 0.9279 0.01 
198 1 20 0.00652156 0.224282 0.0613811 0.0883459 0.290043 -0.208847 0 0 0 -5.00225 2.73714 0.9279 0.01 
199 1 20 0.00854431 0.229074 0.0687259 0.104003 0.32866 -0.238354 0 0 0 -5.00225 2.73714 0.9279 0.01 
200 1 20 0.0105671 0.233866 0.0760706 0.11966 0.367277 -0.267861 0 0 0 -5.00225 2.73714 0.9279 0.01 
201 1 21 0.0178305 0.00657221 0.00978022 -0.0729697 0.0185992 -0.0316794 -0.0477179 1.21954 3.46942 -3.20355 -4.08718 -3.51985 0.01 
202 1 21 0.0162232 0.0112406 0.017305 -0.087293 0.0483629 -0.0532042 -0.369316 -1.249 1.29752 -3.20355 -4.08718 -3.51985 0.01 
203 1 21 0.0146159 0.0159089 0.0248298 -0.101616 0.0781265 -0.074729 0 0 0 -3.20355 -4.08718 -3.51985 0.01 
204 1 21 0.0130086 0.0205773 0.0323547 -0.11594 0.10789 -0.0962537 0.656433 0.648404 -1.36114 -3.20355 -4.08718 -3.51985 0.01 
205 1 21 0.0114012 0.0252457 0.0398795 -0.130263 0.137654 -0.117779 0 0 0 -3.20355 -4.08718 -3.51985 0.01 
206 1 21 0.00979391 0.0299141 0.0474043 -0.144586 0.167417 -0.139303 -2.46176 0.579303 -3.65672 -3.20355 -4.08718 -3.51985 0.01 
207 1 21 0.00818658 0.0345824 0.0549291 -0.158909 0.197181 -0.160828 0 0 0 -3.20355 -4.08718 -3.51985 0.01 
208 1 21 0.00657926 0.0392508 0.0624539 -0.173233 0.226945 -0.182353 0 0 0 -3.20355 -4.08718 -3.51985 0.01 
209 1 21 0.00497194 0.0439192 0.0699787 -0.187556 0.256708 -0.203878 0 0 0 -3.20355 -4.08718 -3.51985 0.01 
210 1 21 0.00336461 0.0485876 0.0775035 -0.201879 0.286472 -0.225402 0.277397 -0.223548 0.167276 -3.20355 -4.08718 -3.51985 0.01 
211 1 22 0.0137291 0.246476 0.0915447 0.129732 0.309029 -0.25348 0.389503 -0.0625654 0.28797 -1.66953 -7.49435 5.6069 0.01 
212 1 22 0.011384 0.239974 0.0973088 0.12299 0.305503 -0.2602 0 0 0 -1.66953 -7.49435 5.6069 0.01 
213 1 22 0.00903882 0.233472 0.103073 0.116248 0.301978 -0.266921 0 0 0 -1.66953 -7.49435 5.6069 0.01 
214 1 22 0.00669366 0.22697 0.108837 0.109506 0.298452 -0.273641 0 0 0 -1.66953 -7.49435 5.6069 0.01 
215 1 22 0.0043485 0.220468 0.114601 0.102763 0.294926 -0.280361 0 0 0 -1.66953 -7.49435 5.6069 0.01 
216 1 22 0.00200334 0.213966 0.120365 0.0960213 0.2914 -0.287081 -0.549715 -0.367086 -1.07171 -1.66953 -7.49435 5.6069 0.01 
217 1 22 -0.000341816 0.207464 0.126129 0.0892792 0.287874 -0.293801 0.303113 -0.0404703 0.39405 -1.66953 -7.49435 5.6069 0.01 
218 1 22 -0.00268697 0.200962 0.131893 0.0825371 0.284349 -0.300522 0 0 0 -1.66953 -7.49435 5.6069 0.01 
219 1 22 -0.00503213 0.19446 0.137657 0.075795 0.280823 -0.307242 0.0440648 0.330019 0.261952 -1.66953 -7.49435 5.6069 0.01 
220 1 22 -0.00737729 0.187958 0.143421 0.0690529 0.277297 -0.313962 0.00194435 0.00421122 0.00406078 -1.66953 -7.49435 5.6069 0.01 
221 1 23 0.232954 0.0496178 0.106259 0.349588 -0.0578801 -0.116784 0 0 0 -10.7342 -1.75316 7.65016 0.01 
222 1 23 0.229211 0.0546322 0.112728 0.299887 -0.0170784 -0.177171 0.298445 -0.145406 0.430652 -10.7342 -1.75316 7.65016 0.01 
223 1 23 0.225468 0.0596465 0.119197 0.250185 0.0237232 -0.237558 0 0 0 -10.7342 -1.75316 7.65016 0.01 
224 1 23 0.221725 0.0646608 0.125665 0.200484 0.0645249 -0.297945 0 0 0 -10.7342 -1.75316 7.65016 0.01 
225 1 23 0.217982 0.0696752 0.132134 0.150783 0.105326 -0.358332 0 0 0 -10.7342 -1.75316 7.65016 0.01 
226 1 23 0.214239 0.0746895 0.138603 0.101081 0.146128 -0.418719 0 0 0 -10.7342 -1.75316 7.65016 0.01 
227 1 23 0.210496 0.0797038 0.145072 0.0513801 0.18693 -0.479106 0 0 0 -10.7342 -1.75316 7.65016 0.01 
228 1 23 0.206752 0.0847182 0.151541 0.0016788 0.227731 -0.539493 0 0 0 -10.7342 -1.75316 7.65016 0.01 
229 1 23 0.203009 0.0897325 0.158009 -0.0480225 0.268533 -0.59988 0 0 0 -10.7342 -1.75316 7.65016 0.01 
230 1 23 0.199266 0.0947468 0.164478 -0.0977239 0.309335 -0.660267 0 0 0 -10.7342 -1.75316 7.65016 0.01 
231 1 24 0.162159 0.0221959 0.00993891 0.0870547 0.0289115 0.00039337 0.141309 -0.0365884 0.392254 -2.90273 8.72687 -5.67225 0.01 
232 1 24 0.168046 0.0205087 0.0165347 0.135045 0.0146686 -0.0460782 0 0 0 -2.90273 8.72687 -5.67225 0.01 
233 1 24 0.173932 0.0188214 0.0231305 0.183035 0.00042578 -0.0925497 0 0 0 -2.90273 8.72687 -5.67225 0.01 
234 1 24 0.179818 0.0171342 0.0297263 0.231025 -0.0138171 -0.139021 0 0 0 -2.90273 8.72687 -5.67225 0.01 
235 1 24 0.185705 0.0154469 0.0363221 0.279015 -0.0280599 -0.185493 0 0 0 -2.90273 8.72687 -5.67225 0.01 
236 1 24 0.191591 0.0137597 0.0429178 0.327005 -0.0423028 -0.231964 0 0 0 -2.90273 8.72687 -5.67225 0.01 
237 1 24 0.197477 0.0120724 0.0495136 0.374995 -0.0565457 -0.278436 0 0 0 -2.90273 8.72687 -5.67225 0.01 
238 1 24 0.203364 0.0103852 0.0561094 0.422985 -0.0707885 -0.324907 0 0 0 -2.90273 8.72687 -5.67225 0.01 
239 1 24 0.20925 0.00869793 0.0627052 0.470975 -0.0850314 -0.371379 0 0 0 -2.90273 8.72687 -5.67225 0.01 
240 1 24 0.215136 0.00701068 0.069301 0.518966 -0.0992743 -0.41785 0 0 0 -2.90273 8.72687 -5.67225 0.01 
241 1 25 0.140415 -0.196035 0.103106 0.0372704 -0.113975 -0.446803 0 0 0 1.65094 11.1273 12.2739 0.01 
242 1 25 0.140669 -0.190742 0.110381 0.0532442 -0.122861 -0.440895 0 0 0 1.65094 11.1273 12.2739 0.01 
243 1 25 0.140924 -0.185448 0.117655 0.0692181 -0.131748 -0.434988 0 0 0 1.65094 11.1273 12.2739 0.01 
244 1 25 0.141178 -0.180155 0.124929 0.0851919 -0.140634 -0.42908 0 0 0 1.65094 11.1273 12.2739 0.01 
245 1 25 0.141433 -0.174862 0.132204 0.101166 -0.14952 -0.423173 0 0 0 1.65094 11.1273 12.2739 0.01 
246 1 25 0.141687 -0.169568 0.139478 0.11714 -0.158406 -0.417265 0 0 0 1.65094 11.1273 12.2739 0.01 
247 1 25 0.141941 -0.164275 0.146752 0.133113 -0.167293 -0.411357 0 0 0 1.65094 11.1273 12.2739 0.01 
248 1 25 0.142196 -0.158982 0.154027 0.149087 -0.176179 -0.40545 0 0 0 1.65094 11.1273 12.2739 0.01 
249 1 25 0.14245 -0.153688 0.161301 0.165061 -0.185065 -0.399542 0 0 0 1.65094 11.1273 12.2739 0.01 
250 1 25 0.142705 -0.148395 0.168575 0.181035 -0.193952 -0.393635 -0.0245167 -0.612043 0.379136 1.65094 11.1273 12.2739 0.01 
251 1 26 -0.00610351 -0.174988 0.00990856 0.0111954 -0.0461758 0.00205832 0.0563197 -0.196935 0.69174 5.07016 1.52873 -4.22657 0.01 
252 1 26 -0.00488439 -0.179335 0.0176942 0.00472373 -0.0908028 -0.0218463 0 0 0 5.07016 1.52873 -4.22657 0.01 
253 1 26 -0.00366527 -0.183683 0.0254798 -0.00174789 -0.13543 -0.045751 0 0 0 5.07016 1.52873 -4.22657 0.01 
254 1 26 -0.00244615 -0.18803 0.0332654 -0.00821951 -0.180057 -0.0696557 0.0265087 -0.030681 -0.0480503 5.07016 1.52873 -4.22657 0.01 
255 1 26 -0.00122703 -0.192377 0.041051 -0.0146911 -0.224684 -0.0935603 0.00546187 0.27419 -0.183681 5.07016 1.52873 -4.22657 0.01 
256 1 26 -7.91435e-06 -0.196724 0.0488366 -0.0211628 -0.269311 -0.117465 0 0 0 5.07016 1.52873 -4.22657 0.01 
257 1 26 0.0012112 -0.201071 0.0566222 -0.0276344 -0.313938 -0.14137 0 0 0 5.07016 1.52873 -4.22657 0.01 
258 1 26 0.00243032 -0.205419 0.0644078 -0.034106 -0.358565 -0.165274 0 0 0 5.07016 1.52873 -4.22657 0.01 
259 1 26 0.00364944 -0.209766 0.0721934 -0.0405776 -0.403192 -0.189179 0 0 0 5.07016 1.52873 -4.22657 0.01 
260 1 26 0.00486856 -0.214113 0.079979 -0.0470492 -0.447819 -0.213084 0.0244723 0.00827635 -0.0235029 5.07016 1.52873 -4.22657 0.01 
261 1 27 -0.131255 0.206135 0.088873 -0.0842769 0.53978 -0.165713 0.989737 0.359993 1.60561 -1.61333 -19.6398 8.70316 0.01 
262 1 27 -0.133606 0.198901 0.0936838 -0.115802 0.52708 -0.200215 0 0 0 -1.61333 -19.6398 8.70316 0.01 