ITEM: TIMESTEP
26000
ITEM: NUMBER OF ATOMS
6300
ITEM: BOX BOUNDS mm mm mm
-0.354673 0.337059
-0.325722 0.369037
0 0.5
ITEM: ATOMS id type mol x y z vx vy vz fx fy fz omegax omegay omegaz radius 
1 1 1 -0.123166 -0.114212 0.0883939 -0.0892775 0.164542 -0.171735 0.23229 -0.0459403 0.0819998 5.26963 -0.50754 -0.0360322 0.01 
2 1 1 -0.12323 -0.116964 0.0969623 -0.0937255 0.119392 -0.186274 -0.0356344 0.0424056 0.0451071 5.26963 -0.50754 -0.0360322 0.01 
3 1 1 -0.123295 -0.119717 0.105531 -0.0981735 0.074242 -0.200813 -0.975059 -0.95043 0.557113 5.26963 -0.50754 -0.0360322 0.01 
4 1 1 -0.123359 -0.12247 0.114099 -0.102622 0.0290919 -0.215351 -0.22834 -0.306412 0.0394102 5.26963 -0.50754 -0.0360322 0.01 
5 1 1 -0.123424 -0.125223 0.122668 -0.10707 -0.0160583 -0.22989 0 0 0 5.26963 -0.50754 -0.0360322 0.01 
6 1 1 -0.123488 -0.127976 0.131236 -0.111518 -0.0612084 -0.244429 0 0 0 5.26963 -0.50754 -0.0360322 0.01 
7 1 1 -0.123553 -0.130728 0.139804 -0.115966 -0.106359 -0.258968 0 0 0 5.26963 -0.50754 -0.0360322 0.01 
8 1 1 -0.123617 -0.133481 0.148373 -0.120414 -0.151509 -0.273507 -0.489111 0.0531615 0.328199 5.26963 -0.50754 -0.0360322 0.01 
9 1 1 -0.123682 -0.136234 0.156941 -0.124862 -0.196659 -0.288046 0.0804565 -0.0137044 0.31996 5.26963 -0.50754 -0.0360322 0.01 
10 1 1 -0.123746 -0.138987 0.16551 -0.12931 -0.241809 -0.302585 0 0 0 5.26963 -0.50754 -0.0360322 0.01 
11 1 2 -0.021963 -0.119617 0.0386081 0.00193379 -0.0608289 -0.100936 0.104479 0.133617 0.154633 3.77744 -1.28949 0.811068 0.01 
12 1 2 -0.0242136 -0.119757 0.0473211 -0.00918771 -0.0955668 -0.104368 0 0 0 3.77744 -1.28949 0.811068 0.01 
13 1 2 -0.0264641 -0.119898 0.056034 -0.0203092 -0.130305 -0.1078 0 0 0 3.77744 -1.28949 0.811068 0.01 
14 1 2 -0.0287147 -0.120038 0.0647469 -0.0314307 -0.165043 -0.111232 0 0 0 3.77744 -1.28949 0.811068 0.01 
15 1 2 -0.0309652 -0.120178 0.0734599 -0.0425522 -0.199781 -0.114664 -0.145988 -0.354691 -0.38162 3.77744 -1.28949 0.811068 0.01 
16 1 2 -0.0332158 -0.120318 0.0821728 -0.0536737 -0.234519 -0.118096 0.0251651 0.039934 -0.0155148 3.77744 -1.28949 0.811068 0.01 
17 1 2 -0.0354664 -0.120459 0.0908858 -0.0647952 -0.269256 -0.121528 0.370438 -0.0200991 1.00592 3.77744 -1.28949 0.811068 0.01 
18 1 2 -0.0377169 -0.120599 0.0995987 -0.0759167 -0.303994 -0.12496 0 0 0 3.77744 -1.28949 0.811068 0.01 
19 1 2 -0.0399675 -0.120739 0.108312 -0.0870382 -0.338732 -0.128392 0 0 0 3.77744 -1.28949 0.811068 0.01 
20 1 2 -0.042218 -0.12088 0.117025 -0.0981598 -0.37347 -0.131824 -0.00622183 0.0111431 -0.0045477 3.77744 -1.28949 0.811068 0.01 
21 1 3 -0.0284586 -0.0349489 0.00987632 -0.015962 -0.00662774 0.029238 -0.0917887 -0.237647 0.0955567 2.74133 -1.61527 0.460373 0.01 
22 1 3 -0.0312299 -0.0397734 0.0169505 -0.0251676 -0.0272962 0.011536 0 0 0 2.74133 -1.61527 0.460373 0.01 
23 1 3 -0.0340011 -0.044598 0.0240247 -0.0343732 -0.0479646 -0.00616599 0 0 0 2.74133 -1.61527 0.460373 0.01 
24 1 3 -0.0367723 -0.0494226 0.0310988 -0.0435788 -0.068633 -0.023868 0 0 0 2.74133 -1.61527 0.460373 0.01 
25 1 3 -0.0395435 -0.0542471 0.038173 -0.0527843 -0.0893014 -0.04157 0.115804 -0.0587318 -0.0380849 2.74133 -1.61527 0.460373 0.01 
26 1 3 -0.0423147 -0.0590717 0.0452472 -0.0619899 -0.10997 -0.0592719 0 0 0 2.74133 -1.61527 0.460373 0.01 
27 1 3 -0.045086 -0.0638963 0.0523213 -0.0711955 -0.130638 -0.0769739 0 0 0 2.74133 -1.61527 0.460373 0.01 
28 1 3 -0.0478572 -0.0687208 0.0593955 -0.080401 -0.151307 -0.0946759 0 0 0 2.74133 -1.61527 0.460373 0.01 
29 1 3 -0.0506284 -0.0735454 0.0664697 -0.0896066 -0.171975 -0.112378 -1.5153 -0.126716 -0.246314 2.74133 -1.61527 0.460373 0.01 
30 1 3 -0.0533996 -0.07837 0.0735439 -0.0988122 -0.192644 -0.13008 -0.220758 -1.27858 0.176727 2.74133 -1.61527 0.460373 0.01 
31 1 4 -0.0891568 0.113942 0.0098967 -0.0285981 0.0389237 -0.0047863 -0.123008 0.356441 0.971274 -4.37524 -3.26151 -2.94865 0.01 
32 1 4 -0.0902126 0.117585 0.0180584 -0.0444758 0.0777465 -0.0241688 0 0 0 -4.37524 -3.26151 -2.94865 0.01 
33 1 4 -0.0912684 0.121228 0.0262202 -0.0603535 0.116569 -0.0435512 0 0 0 -4.37524 -3.26151 -2.94865 0.01 
34 1 4 -0.0923242 0.124871 0.0343819 -0.0762311 0.155392 -0.0629337 0 0 0 -4.37524 -3.26151 -2.94865 0.01 
35 1 4 -0.09338 0.128514 0.0425436 -0.0921088 0.194215 -0.0823161 0 0 0 -4.37524 -3.26151 -2.94865 0.01 
36 1 4 -0.0944358 0.132157 0.0507054 -0.107986 0.233037 -0.101699 0 0 0 -4.37524 -3.26151 -2.94865 0.01 
37 1 4 -0.0954916 0.1358 0.0588671 -0.123864 0.27186 -0.121081 0 0 0 -4.37524 -3.26151 -2.94865 0.01 
38 1 4 -0.0965474 0.139443 0.0670288 -0.139742 0.310683 -0.140464 0 0 0 -4.37524 -3.26151 -2.94865 0.01 
39 1 4 -0.0976032 0.143086 0.0751906 -0.15562 0.349505 -0.159846 -0.0415972 0.187918 -0.160112 -4.37524 -3.26151 -2.94865 0.01 
40 1 4 -0.098659 0.146729 0.0833523 -0.171497 0.388328 -0.179228 0.0281552 0.0204457 0.022915 -4.37524 -3.26151 -2.94865 0.01 
41 1 5 0.0791619 -0.134996 0.00982444 -0.00763128 -0.0120407 0.0115926 -0.837661 -0.0192452 1.6841 1.24767 -1.50942 -3.39369 0.01 
42 1 5 0.0798267 -0.133725 0.0187094 -0.0167285 -0.0253823 0.014182 0 0 0 1.24767 -1.50942 -3.39369 0.01 
43 1 5 0.0804915 -0.132454 0.0275943 -0.0258257 -0.0387238 0.0167714 1.29267 0.204891 -0.140294 1.24767 -1.50942 -3.39369 0.01 
44 1 5 0.0811562 -0.131183 0.0364793 -0.0349229 -0.0520653 0.0193608 0 0 0 1.24767 -1.50942 -3.39369 0.01 
45 1 5 0.081821 -0.129912 0.0453642 -0.0440201 -0.0654069 0.0219502 0 0 0 1.24767 -1.50942 -3.39369 0.01 
46 1 5 0.0824858 -0.128641 0.0542492 -0.0531173 -0.0787484 0.0245396 0 0 0 1.24767 -1.50942 -3.39369 0.01 
47 1 5 0.0831506 -0.127369 0.0631341 -0.0622145 -0.09209 0.027129 0 0 0 1.24767 -1.50942 -3.39369 0.01 
48 1 5 0.0838153 -0.126098 0.0720191 -0.0713117 -0.105431 0.0297184 0 0 0 1.24767 -1.50942 -3.39369 0.01 
49 1 5 0.0844801 -0.124827 0.080904 -0.0804089 -0.118773 0.0323078 0 0 0 1.24767 -1.50942 -3.39369 0.01 
50 1 5 0.0851449 -0.123556 0.089789 -0.0895061 -0.132115 0.0348972 -0.71406 -0.213696 -1.2123 1.24767 -1.50942 -3.39369 0.01 
51 1 6 0.181613 -0.0335421 0.0111111 0.144192 0.110964 0.0431218 0 0 0 10.2294 -0.409715 -7.23094 0.01 
52 1 6 0.176343 -0.0375736 0.017192 0.112549 0.0868637 -0.000277375 0 0 0 10.2294 -0.409715 -7.23094 0.01 
53 1 6 0.171073 -0.0416052 0.023273 0.0809056 0.0627635 -0.0436765 0 0 0 10.2294 -0.409715 -7.23094 0.01 
54 1 6 0.165804 -0.0456367 0.0293539 0.0492623 0.0386634 -0.0870756 0 0 0 10.2294 -0.409715 -7.23094 0.01 
55 1 6 0.160534 -0.0496683 0.0354349 0.017619 0.0145633 -0.130475 0.218466 0.064196 0.410718 10.2294 -0.409715 -7.23094 0.01 
56 1 6 0.155265 -0.0536998 0.0415158 -0.0140242 -0.00953688 -0.173874 0 0 0 10.2294 -0.409715 -7.23094 0.01 
57 1 6 0.149995 -0.0577313 0.0475968 -0.0456675 -0.033637 -0.217273 0 0 0 10.2294 -0.409715 -7.23094 0.01 
58 1 6 0.144725 -0.0617629 0.0536777 -0.0773108 -0.0577372 -0.260672 0 0 0 10.2294 -0.409715 -7.23094 0.01 
59 1 6 0.139456 -0.0657944 0.0597587 -0.108954 -0.0818373 -0.304071 0 0 0 10.2294 -0.409715 -7.23094 0.01 
60 1 6 0.134186 -0.069826 0.0658397 -0.140597 -0.105937 -0.34747 0 0 0 10.2294 -0.409715 -7.23094 0.01 
61 1 7 -0.038495 0.21949 0.00968448 0.0166757 0.0539158 0.0518352 0.0344027 0.680455 3.34833 -5.18835 -0.275501 -3.56198 0.01 
62 1 7 -0.0375133 0.221112 0.0184824 0.0200314 0.0960659 0.0436872 0 0 0 -5.18835 -0.275501 -3.56198 0.01 
63 1 7 -0.0365317 0.222735 0.0272803 0.0233872 0.138216 0.0355391 0 0 0 -5.18835 -0.275501 -3.56198 0.01 
64 1 7 -0.03555 0.224357 0.0360783 0.0267429 0.180366 0.0273911 0 0 0 -5.18835 -0.275501 -3.56198 0.01 
65 1 7 -0.0345683 0.22598 0.0448762 0.0300987 0.222516 0.019243 0 0 0 -5.18835 -0.275501 -3.56198 0.01 
66 1 7 -0.0335867 0.227603 0.0536741 0.0334544 0.264666 0.0110949 0 0 0 -5.18835 -0.275501 -3.56198 0.01 
67 1 7 -0.032605 0.229225 0.0624721 0.0368102 0.306816 0.00294689 0 0 0 -5.18835 -0.275501 -3.56198 0.01 
68 1 7 -0.0316234 0.230848 0.07127 0.0401659 0.348966 -0.00520116 0 0 0 -5.18835 -0.275501 -3.56198 0.01 
69 1 7 -0.0306417 0.23247 0.0800679 0.0435217 0.391116 -0.0133492 0.078135 0.0576546 -0.0887163 -5.18835 -0.275501 -3.56198 0.01 
70 1 7 -0.02966 0.234093 0.0888659 0.0468774 0.433266 -0.0214973 -1.52634 -0.0736529 -3.33577 -5.18835 -0.275501 -3.56198 0.01 
71 1 8 0.134113 -0.146504 0.105284 0.0754143 -0.161097 -0.101487 0 0 0 -1.26379 5.54453 -1.06352 0.01 
72 1 8 0.138064 -0.146043 0.113357 0.120669 -0.155095 -0.123973 0 0 0 -1.26379 5.54453 -1.06352 0.01 
73 1 8 0.142014 -0.145582 0.121431 0.165923 -0.149093 -0.146458 0 0 0 -1.26379 5.54453 -1.06352 0.01 
74 1 8 0.145964 -0.145121 0.129505 0.211177 -0.143091 -0.168943 0 0 0 -1.26379 5.54453 -1.06352 0.01 
75 1 8 0.149915 -0.14466 0.137578 0.256431 -0.137089 -0.191428 0 0 0 -1.26379 5.54453 -1.06352 0.01 
76 1 8 0.153865 -0.144199 0.145652 0.301686 -0.131087 -0.213914 0 0 0 -1.26379 5.54453 -1.06352 0.01 
77 1 8 0.157815 -0.143739 0.153725 0.34694 -0.125085 -0.236399 0 0 0 -1.26379 5.54453 -1.06352 0.01 
78 1 8 0.161766 -0.143278 0.161799 0.392194 -0.119083 -0.258884 0 0 0 -1.26379 5.54453 -1.06352 0.01 
79 1 8 0.165716 -0.142817 0.169872 0.437448 -0.113081 -0.281369 0 0 0 -1.26379 5.54453 -1.06352 0.01 
80 1 8 0.169666 -0.142356 0.177946 0.482703 -0.107079 -0.303854 0 0 0 -1.26379 5.54453 -1.06352 0.01 
81 1 9 -0.129806 0.0427024 0.0822333 0.107008 0.0166109 -0.622025 0 0 0 -15.3966 1.96684 -5.48193 0.01 
82 1 9 -0.122633 0.0407126 0.0872916 0.106049 0.0551681 -0.605497 0 0 0 -15.3966 1.96684 -5.48193 0.01 
83 1 9 -0.11546 0.0387228 0.0923499 0.10509 0.0937253 -0.58897 0 0 0 -15.3966 1.96684 -5.48193 0.01 
84 1 9 -0.108287 0.036733 0.0974081 0.104131 0.132283 -0.572442 0 0 0 -15.3966 1.96684 -5.48193 0.01 
85 1 9 -0.101113 0.0347432 0.102466 0.103172 0.17084 -0.555914 0 0 0 -15.3966 1.96684 -5.48193 0.01 
86 1 9 -0.0939402 0.0327534 0.107525 0.102212 0.209397 -0.539387 0 0 0 -15.3966 1.96684 -5.48193 0.01 
87 1 9 -0.086767 0.0307636 0.112583 0.101253 0.247954 -0.522859 0 0 0 -15.3966 1.96684 -5.48193 0.01 
88 1 9 -0.0795938 0.0287737 0.117641 0.100294 0.286512 -0.506331 0 0 0 -15.3966 1.96684 -5.48193 0.01 
89 1 9 -0.0724207 0.0267839 0.1227 0.0993349 0.325069 -0.489803 -0.00121909 2.34673 3.96961 -15.3966 1.96684 -5.48193 0.01 
90 1 9 -0.0652475 0.0247941 0.127758 0.0983757 0.363626 -0.473276 0 0 0 -15.3966 1.96684 -5.48193 0.01 
91 1 10 0.0596317 0.209193 0.108621 -0.0101293 0.129536 -0.0882779 0 0 0 -9.37575 0.751406 11.2837 0.01 
92 1 10 0.0559704 0.211469 0.116522 -0.0298754 0.162294 -0.106866 0 0 0 -9.37575 0.751406 11.2837 0.01 
93 1 10 0.0523091 0.213746 0.124422 -0.0496214 0.195052 -0.125455 0 0 0 -9.37575 0.751406 11.2837 0.01 
94 1 10 0.0486477 0.216022 0.132322 -0.0693674 0.227809 -0.144043 0 0 0 -9.37575 0.751406 11.2837 0.01 
95 1 10 0.0449864 0.218298 0.140222 -0.0891134 0.260567 -0.162632 0 0 0 -9.37575 0.751406 11.2837 0.01 
96 1 10 0.0413251 0.220574 0.148123 -0.108859 0.293324 -0.181221 0 0 0 -9.37575 0.751406 11.2837 0.01 
97 1 10 0.0376638 0.22285 0.156023 -0.128606 0.326082 -0.199809 0 0 0 -9.37575 0.751406 11.2837 0.01 
98 1 10 0.0340024 0.225126 0.163923 -0.148352 0.358839 -0.218398 0 0 0 -9.37575 0.751406 11.2837 0.01 
99 1 10 0.0303411 0.227402 0.171823 -0.168098 0.391597 -0.236986 -0.0785185 0.053746 -0.0825928 -9.37575 0.751406 11.2837 0.01 
100 1 10 0.0266798 0.229678 0.179724 -0.187844 0.424355 -0.255575 0 0 0 -9.37575 0.751406 11.2837 0.01 
101 1 11 -0.237375 -0.0874873 0.0198433 -0.232385 0.17971 -0.506479 0 0 0 5.72359 -0.340493 -3.07735 0.01 
102 1 11 -0.235471 -0.0902584 0.0281918 -0.243755 0.126069 -0.521692 0 0 0 5.72359 -0.340493 -3.07735 0.01 
103 1 11 -0.233568 -0.0930295 0.0365403 -0.255125 0.0724275 -0.536905 -0.028945 -0.07006 0.00455649 5.72359 -0.340493 -3.07735 0.01 
104 1 11 -0.231664 -0.0958007 0.0448888 -0.266496 0.0187863 -0.552117 0 0 0 5.72359 -0.340493 -3.07735 0.01 
105 1 11 -0.229761 -0.0985718 0.0532373 -0.277866 -0.0348548 -0.56733 0.0453333 0.0283822 0.0263744 5.72359 -0.340493 -3.07735 0.01 
106 1 11 -0.227858 -0.101343 0.0615858 -0.289236 -0.0884959 -0.582543 0 0 0 5.72359 -0.340493 -3.07735 0.01 
107 1 11 -0.225954 -0.104114 0.0699344 -0.300607 -0.142137 -0.597756 0 0 0 5.72359 -0.340493 -3.07735 0.01 
108 1 11 -0.224051 -0.106885 0.0782829 -0.311977 -0.195778 -0.612968 0 0 0 5.72359 -0.340493 -3.07735 0.01 
109 1 11 -0.222147 -0.109656 0.0866314 -0.323347 -0.249419 -0.628181 -0.102927 0.058758 0.107145 5.72359 -0.340493 -3.07735 0.01 
110 1 11 -0.220244 -0.112427 0.0949799 -0.334718 -0.30306 -0.643394 0.0793511 -0.155943 -0.145098 5.72359 -0.340493 -3.07735 0.01 
111 1 12 0.108196 0.0493578 0.0677887 0.105405 -0.116123 -0.606802 0 0 0 -1.74505 -4.44438 -6.39344 0.01 
112 1 12 0.109347 0.0521853 0.0762552 0.0858543 -0.108706 -0.606621 0.609925 0.510698 1.88759 -1.74505 -4.44438 -6.39344 0.01 
113 1 12 0.110498 0.0550127 0.0847217 0.0663033 -0.101289 -0.606441 0 0 0 -1.74505 -4.44438 -6.39344 0.01 
114 1 12 0.111649 0.0578402 0.0931881 0.0467522 -0.0938715 -0.606261 0 0 0 -1.74505 -4.44438 -6.39344 0.01 
115 1 12 0.1128 0.0606677 0.101655 0.0272012 -0.0864544 -0.60608 0 0 0 -1.74505 -4.44438 -6.39344 0.01 
116 1 12 0.11395 0.0634951 0.110121 0.00765014 -0.0790374 -0.6059 -1.24539 0.451724 1.07399 -1.74505 -4.44438 -6.39344 0.01 
117 1 12 0.115101 0.0663226 0.118588 -0.0119009 -0.0716204 -0.605719 0 0 0 -1.74505 -4.44438 -6.39344 0.01 
118 1 12 0.116252 0.06915 0.127054 -0.0314519 -0.0642033 -0.605539 0.344709 -0.237648 0.273048 -1.74505 -4.44438 -6.39344 0.01 
119 1 12 0.117403 0.0719775 0.135521 -0.051003 -0.0567863 -0.605359 0 0 0 -1.74505 -4.44438 -6.39344 0.01 
120 1 12 0.118553 0.074805 0.143987 -0.070554 -0.0493693 -0.605178 0 0 0 -1.74505 -4.44438 -6.39344 0.01 
121 1 13 -0.00471529 0.250934 0.0870326 0.0884003 0.393736 0.0123552 -1.34692 0.674814 -1.52409 5.74881 4.4318 -7.19861 0.01 
122 1 13 -0.00937525 0.246098 0.0930242 0.0801429 0.392837 0.00520705 -0.0370241 0.285921 0.061466 5.74881 4.4318 -7.19861 0.01 
123 1 13 -0.0140352 0.241262 0.0990158 0.0718856 0.391937 -0.00194115 -0.325449 -0.20988 -0.522087 5.74881 4.4318 -7.19861 0.01 
124 1 13 -0.0186952 0.236426 0.105007 0.0636282 0.391037 -0.00908934 1.52699 0.0745167 3.33686 5.74881 4.4318 -7.19861 0.01 
125 1 13 -0.0233551 0.23159 0.110999 0.0553708 0.390138 -0.0162375 0 0 0 5.74881 4.4318 -7.19861 0.01 
126 1 13 -0.0280151 0.226755 0.116991 0.0471134 0.389238 -0.0233857 0.128669 0.146239 0.110334 5.74881 4.4318 -7.19861 0.01 
127 1 13 -0.032675 0.221919 0.122982 0.038856 0.388338 -0.0305339 0 0 0 5.74881 4.4318 -7.19861 0.01 
128 1 13 -0.037335 0.217083 0.128974 0.0305987 0.387439 -0.0376821 0 0 0 5.74881 4.4318 -7.19861 0.01 
129 1 13 -0.0419949 0.212247 0.134966 0.0223413 0.386539 -0.0448303 0 0 0 5.74881 4.4318 -7.19861 0.01 
130 1 13 -0.0466549 0.207411 0.140957 0.0140839 0.38564 -0.0519785 0 0 0 5.74881 4.4318 -7.19861 0.01 
131 1 14 -0.0479812 0.124774 0.00986011 -0.0254354 0.0395713 0.00828385 0.292888 0.529361 1.20997 -6.24976 -0.381274 -4.81848 0.01 
132 1 14 -0.045566 0.128385 0.0177421 -0.0110395 0.0771944 -0.0133652 -0.0855401 -0.199395 0.309839 -6.24976 -0.381274 -4.81848 0.01 
133 1 14 -0.0431509 0.131996 0.025624 0.00335643 0.114817 -0.0350143 -0.0187795 -0.0650001 -0.000110813 -6.24976 -0.381274 -4.81848 0.01 
134 1 14 -0.0407357 0.135608 0.033506 0.0177523 0.152441 -0.0566634 0 0 0 -6.24976 -0.381274 -4.81848 0.01 
135 1 14 -0.0383206 0.139219 0.041388 0.0321482 0.190064 -0.0783125 0 0 0 -6.24976 -0.381274 -4.81848 0.01 
136 1 14 -0.0359055 0.14283 0.0492699 0.0465441 0.227687 -0.0999616 0 0 0 -6.24976 -0.381274 -4.81848 0.01 
137 1 14 -0.0334903 0.146442 0.0571519 0.06094 0.26531 -0.121611 0 0 0 -6.24976 -0.381274 -4.81848 0.01 
138 1 14 -0.0310752 0.150053 0.0650339 0.075336 0.302933 -0.14326 0 0 0 -6.24976 -0.381274 -4.81848 0.01 
139 1 14 -0.02866 0.153664 0.0729159 0.0897319 0.340556 -0.164909 0 0 0 -6.24976 -0.381274 -4.81848 0.01 
140 1 14 -0.0262449 0.157276 0.0807978 0.104128 0.378179 -0.186558 -0.111502 0.0953744 -0.632792 -6.24976 -0.381274 -4.81848 0.01 
141 1 15 -0.00554444 -0.0623857 0.0102258 -0.00663528 0.129157 0.027229 0.148295 -0.00682277 0.00181046 -0.766495 -4.62217 10.1456 0.01 
142 1 15 -0.00897528 -0.0639709 0.0183938 -0.0283063 0.10061 0.0125862 0 0 0 -0.766495 -4.62217 10.1456 0.01 
143 1 15 -0.0124061 -0.0655561 0.0265618 -0.0499772 0.0720628 -0.00205667 0 0 0 -0.766495 -4.62217 10.1456 0.01 
144 1 15 -0.015837 -0.0671413 0.0347298 -0.0716482 0.0435158 -0.0166995 0 0 0 -0.766495 -4.62217 10.1456 0.01 
145 1 15 -0.0192678 -0.0687266 0.0428978 -0.0933192 0.0149687 -0.0313424 0.144902 0.150949 0.279563 -0.766495 -4.62217 10.1456 0.01 
146 1 15 -0.0226986 -0.0703118 0.0510658 -0.11499 -0.0135783 -0.0459852 -0.0321856 -0.20333 -0.00895302 -0.766495 -4.62217 10.1456 0.01 
147 1 15 -0.0261295 -0.071897 0.0592338 -0.136661 -0.0421253 -0.0606281 0 0 0 -0.766495 -4.62217 10.1456 0.01 
148 1 15 -0.0295603 -0.0734822 0.0674018 -0.158332 -0.0706724 -0.0752709 0 0 0 -0.766495 -4.62217 10.1456 0.01 
149 1 15 -0.0329911 -0.0750674 0.0755699 -0.180003 -0.0992194 -0.0899137 0.229853 -0.118087 -0.398857 -0.766495 -4.62217 10.1456 0.01 
150 1 15 -0.036422 -0.0766527 0.0837379 -0.201674 -0.127766 -0.104557 1.39595 0.686124 0.773145 -0.766495 -4.62217 10.1456 0.01 
151 1 16 -0.0380423 0.178926 0.00994477 0.00971321 0.0463763 0.00811612 0.102196 -0.0358855 0.189409 -3.87082 1.54625 1.6248 0.01 
152 1 16 -0.0367121 0.182678 0.0180162 0.0160962 0.0797806 -0.00846694 0 0 0 -3.87082 1.54625 1.6248 0.01 
153 1 16 -0.0353819 0.186431 0.0260876 0.0224791 0.113185 -0.02505 0 0 0 -3.87082 1.54625 1.6248 0.01 
154 1 16 -0.0340517 0.190184 0.034159 0.028862 0.146589 -0.0416331 0 0 0 -3.87082 1.54625 1.6248 0.01 
155 1 16 -0.0327215 0.193937 0.0422304 0.035245 0.179993 -0.0582161 -0.131697 -0.140532 0.223394 -3.87082 1.54625 1.6248 0.01 
156 1 16 -0.0313913 0.197689 0.0503018 0.0416279 0.213398 -0.0747992 -0.159058 -0.158018 0.258438 -3.87082 1.54625 1.6248 0.01 
157 1 16 -0.0300612 0.201442 0.0583731 0.0480109 0.246802 -0.0913822 -0.0756864 -0.0751098 0.121005 -3.87082 1.54625 1.6248 0.01 
158 1 16 -0.028731 0.205195 0.0664445 0.0543938 0.280206 -0.107965 0.0979279 0.12286 0.00957409 -3.87082 1.54625 1.6248 0.01 
159 1 16 -0.0274008 0.208948 0.0745159 0.0607768 0.31361 -0.124548 0.00329483 -0.00147269 -0.00172772 -3.87082 1.54625 1.6248 0.01 
160 1 16 -0.0260706 0.2127 0.0825873 0.0671597 0.347015 -0.141131 0.0252842 0.0749086 0.165365 -3.87082 1.54625 1.6248 0.01 
161 1 17 0.0742472 0.0911147 0.00991693 0.0164684 -0.0186431 -0.00561722 0.0970986 -0.102365 0.734483 2.03182 1.61575 7.13341 0.01 
162 1 17 0.0766235 0.0893853 0.0184236 0.042549 -0.018976 -0.0129704 0 0 0 2.03182 1.61575 7.13341 0.01 
163 1 17 0.0789998 0.087656 0.0269302 0.0686296 -0.0193089 -0.0203236 0 0 0 2.03182 1.61575 7.13341 0.01 
164 1 17 0.0813761 0.0859267 0.0354368 0.0947102 -0.0196418 -0.0276768 0 0 0 2.03182 1.61575 7.13341 0.01 
165 1 17 0.0837524 0.0841974 0.0439434 0.120791 -0.0199747 -0.0350299 0 0 0 2.03182 1.61575 7.13341 0.01 
166 1 17 0.0861287 0.082468 0.0524501 0.146871 -0.0203076 -0.0423831 0 0 0 2.03182 1.61575 7.13341 0.01 
167 1 17 0.088505 0.0807387 0.0609567 0.172952 -0.0206405 -0.0497363 0 0 0 2.03182 1.61575 7.13341 0.01 
168 1 17 0.0908813 0.0790094 0.0694633 0.199033 -0.0209734 -0.0570895 -0.155497 -0.746286 -1.78853 2.03182 1.61575 7.13341 0.01 
169 1 17 0.0932575 0.07728 0.0779699 0.225113 -0.0213063 -0.0644427 0 0 0 2.03182 1.61575 7.13341 0.01 
170 1 17 0.0956338 0.0755507 0.0864766 0.251194 -0.0216392 -0.0717958 0 0 0 2.03182 1.61575 7.13341 0.01 
171 1 18 -0.297848 -0.0446236 0.053659 -0.497561 0.00191678 -0.48713 0 0 0 -5.07571 -3.39853 -8.36302 0.01 
172 1 18 -0.293612 -0.0427605 0.061378 -0.508213 0.00566788 -0.482189 0 0 0 -5.07571 -3.39853 -8.36302 0.01 
173 1 18 -0.289375 -0.0408974 0.0690969 -0.518866 0.00941897 -0.477248 0 0 0 -5.07571 -3.39853 -8.36302 0.01 
174 1 18 -0.285139 -0.0390344 0.0768159 -0.529518 0.0131701 -0.472307 0 0 0 -5.07571 -3.39853 -8.36302 0.01 
175 1 18 -0.280903 -0.0371713 0.0845349 -0.54017 0.0169212 -0.467367 0 0 0 -5.07571 -3.39853 -8.36302 0.01 
176 1 18 -0.276666 -0.0353082 0.0922539 -0.550822 0.0206723 -0.462426 0 0 0 -5.07571 -3.39853 -8.36302 0.01 
177 1 18 -0.27243 -0.0334452 0.0999729 -0.561475 0.0244234 -0.457485 0 0 0 -5.07571 -3.39853 -8.36302 0.01 
178 1 18 -0.268194 -0.0315821 0.107692 -0.572127 0.0281745 -0.452544 0 0 0 -5.07571 -3.39853 -8.36302 0.01 
179 1 18 -0.263958 -0.029719 0.115411 -0.582779 0.0319256 -0.447603 0 0 0 -5.07571 -3.39853 -8.36302 0.01 
180 1 18 -0.259721 -0.027856 0.12313 -0.593432 0.0356767 -0.442663 0 0 0 -5.07571 -3.39853 -8.36302 0.01 
181 1 19 0.0183853 0.191738 0.101762 -0.0715114 0.272009 -0.119698 0 0 0 10.3601 7.33025 -3.631 0.01 
182 1 19 0.0172958 0.186079 0.108675 -0.0413795 0.204341 -0.170332 0 0 0 10.3601 7.33025 -3.631 0.01 
183 1 19 0.0162062 0.180421 0.115588 -0.0112476 0.136673 -0.220967 0 0 0 10.3601 7.33025 -3.631 0.01 
184 1 19 0.0151167 0.174763 0.122502 0.0188843 0.0690044 -0.271602 0 0 0 10.3601 7.33025 -3.631 0.01 
185 1 19 0.0140272 0.169104 0.129415 0.0490161 0.00133622 -0.322237 0 0 0 10.3601 7.33025 -3.631 0.01 
186 1 19 0.0129377 0.163446 0.136329 0.079148 -0.066332 -0.372872 0 0 0 10.3601 7.33025 -3.631 0.01 
187 1 19 0.0118482 0.157788 0.143242 0.10928 -0.134 -0.423507 0 0 0 10.3601 7.33025 -3.631 0.01 
188 1 19 0.0107587 0.152129 0.150156 0.139412 -0.201668 -0.474141 0 0 0 10.3601 7.33025 -3.631 0.01 
189 1 19 0.00966914 0.146471 0.157069 0.169544 -0.269336 -0.524776 0 0 0 10.3601 7.33025 -3.631 0.01 
190 1 19 0.00857962 0.140812 0.163983 0.199676 -0.337005 -0.575411 0 0 0 10.3601 7.33025 -3.631 0.01 
191 1 20 -0.00758185 0.190534 0.00990905 0.0012612 0.0098071 -0.000210392 0.246683 0.268494 0.729223 -4.2954 2.66899 1.63465 0.01 
192 1 20 -0.00569658 0.194955 0.0175183 0.0143433 0.0455735 -0.0242323 0 0 0 -4.2954 2.66899 1.63465 0.01 
193 1 20 -0.00381132 0.199377 0.0251275 0.0274253 0.0813398 -0.0482542 0 0 0 -4.2954 2.66899 1.63465 0.01 
194 1 20 -0.00192606 0.203798 0.0327367 0.0405074 0.117106 -0.0722761 -0.0397482 0.00664573 0.0307381 -4.2954 2.66899 1.63465 0.01 
195 1 20 -4.07922e-05 0.208219 0.0403459 0.0535894 0.152873 -0.096298 -0.0428727 0.00633314 0.0338385 -4.2954 2.66899 1.63465 0.01 
196 1 20 0.00184447 0.21264 0.0479551 0.0666715 0.188639 -0.12032 -0.0139976 0.00178815 0.0112912 -4.2954 2.66899 1.63465 0.01 
197 1 20 0.00372974 0.217061 0.0555643 0.0797535 0.224405 -0.144342 0.00223319 0.0401134 -0.00132348 -4.2954 2.66899 1.63465 0.01 
198 1 20 0.005615 0.221482 0.0631736 0.0928356 0.260172 -0.168364 -0.00371262 0.00191742 0.000441536 -4.2954 2.66899 1.63465 0.01 
199 1 20 0.00750026 0.225903 0.0707828 0.105918 0.295938 -0.192386 0 0 0 -4.2954 2.66899 1.63465 0.01 
200 1 20 0.00938553 0.230324 0.078392 0.119 0.331704 -0.216408 0 0 0 -4.2954 2.66899 1.63465 0.01 
201 1 21 0.0181003 0.00638456 0.00986775 -0.0324634 0.0300821 0.021331 -0.0974218 0.685144 0.218356 -2.65823 -3.72336 -2.45995 0.01 
202 1 21 0.0166767 0.0108067 0.0175761 -0.050286 0.0540745 0.00427558 0.0500882 -0.873587 1.02877 -2.65823 -3.72336 -2.45995 0.01 
203 1 21 0.0152532 0.0152288 0.0252844 -0.0681086 0.0780668 -0.0127799 0.00151625 0.0132092 0.000762687 -2.65823 -3.72336 -2.45995 0.01 
204 1 21 0.0138296 0.0196509 0.0329927 -0.0859313 0.102059 -0.0298353 0 0 0 -2.65823 -3.72336 -2.45995 0.01 
205 1 21 0.012406 0.0240731 0.0407011 -0.103754 0.126052 -0.0468907 0.0590135 0.106793 -0.105749 -2.65823 -3.72336 -2.45995 0.01 
206 1 21 0.0109825 0.0284952 0.0484094 -0.121577 0.150044 -0.0639461 0 0 0 -2.65823 -3.72336 -2.45995 0.01 
207 1 21 0.00955891 0.0329173 0.0561177 -0.139399 0.174036 -0.0810016 0 0 0 -2.65823 -3.72336 -2.45995 0.01 
208 1 21 0.00813535 0.0373394 0.063826 -0.157222 0.198029 -0.098057 0 0 0 -2.65823 -3.72336 -2.45995 0.01 
209 1 21 0.00671179 0.0417615 0.0715344 -0.175044 0.222021 -0.115112 0 0 0 -2.65823 -3.72336 -2.45995 0.01 
210 1 21 0.00528823 0.0461837 0.0792427 -0.192867 0.246013 -0.132168 -0.180024 -0.266668 -0.118116 -2.65823 -3.72336 -2.45995 0.01 
211 1 22 0.0123726 0.243185 0.0934313 0.100186 0.374374 -0.165618 1.34692 -0.674814 1.52409 2.33503 -5.19651 3.32378 0.01 
212 1 22 0.0101186 0.236799 0.0993593 0.0906063 0.35304 -0.192242 0 0 0 2.33503 -5.19651 3.32378 0.01 
213 1 22 0.00786457 0.230413 0.105287 0.0810271 0.331707 -0.218866 0 0 0 2.33503 -5.19651 3.32378 0.01 
214 1 22 0.00561058 0.224027 0.111215 0.0714478 0.310373 -0.24549 0 0 0 2.33503 -5.19651 3.32378 0.01 
215 1 22 0.00335659 0.217641 0.117143 0.0618685 0.289039 -0.272114 0 0 0 2.33503 -5.19651 3.32378 0.01 
216 1 22 0.0011026 0.211255 0.123071 0.0522893 0.267706 -0.298739 0 0 0 2.33503 -5.19651 3.32378 0.01 
217 1 22 -0.00115139 0.20487 0.128999 0.04271 0.246372 -0.325363 0 0 0 2.33503 -5.19651 3.32378 0.01 
218 1 22 -0.00340539 0.198484 0.134927 0.0331308 0.225038 -0.351987 0 0 0 2.33503 -5.19651 3.32378 0.01 
219 1 22 -0.00565938 0.192098 0.140855 0.0235515 0.203705 -0.378611 0 0 0 2.33503 -5.19651 3.32378 0.01 
220 1 22 -0.00791337 0.185712 0.146783 0.0139722 0.182371 -0.405235 0 0 0 2.33503 -5.19651 3.32378 0.01 
221 1 23 0.22951 0.050128 0.107326 0.349968 -0.0586824 -0.0735943 0 0 0 -9.11878 -2.84696 6.67556 0.01 
222 1 23 0.226262 0.054738 0.11434 0.299225 -0.0164087 -0.12488 0 0 0 -9.11878 -2.84696 6.67556 0.01 
223 1 23 0.223013 0.059348 0.121354 0.248482 0.0258651 -0.176166 0 0 0 -9.11878 -2.84696 6.67556 0.01 
224 1 23 0.219765 0.063958 0.128368 0.197739 0.0681389 -0.227452 0 0 0 -9.11878 -2.84696 6.67556 0.01 
225 1 23 0.216517 0.0685681 0.135382 0.146996 0.110413 -0.278738 0 0 0 -9.11878 -2.84696 6.67556 0.01 
226 1 23 0.213268 0.0731781 0.142396 0.0962532 0.152686 -0.330024 0 0 0 -9.11878 -2.84696 6.67556 0.01 
227 1 23 0.21002 0.0777881 0.14941 0.0455103 0.19496 -0.38131 0 0 0 -9.11878 -2.84696 6.67556 0.01 
228 1 23 0.206771 0.0823982 0.156424 -0.00523263 0.237234 -0.432596 0 0 0 -9.11878 -2.84696 6.67556 0.01 
229 1 23 0.203523 0.0870082 0.163438 -0.0559756 0.279508 -0.483882 0 0 0 -9.11878 -2.84696 6.67556 0.01 
230 1 23 0.200275 0.0916182 0.170452 -0.106718 0.321782 -0.535168 0 0 0 -9.11878 -2.84696 6.67556 0.01 
231 1 24 0.161335 0.0219103 0.0099335 0.0781237 0.0281497 0.000938363 0.152902 -0.0398265 0.436856 -2.83678 7.80104 -6.04853 0.01 
232 1 24 0.166754 0.0203588 0.0169497 0.123473 0.0152759 -0.0369344 0 0 0 -2.83678 7.80104 -6.04853 0.01 
233 1 24 0.172173 0.0188072 0.0239659 0.168822 0.00240208 -0.0748073 0 0 0 -2.83678 7.80104 -6.04853 0.01 
234 1 24 0.177592 0.0172557 0.030982 0.214171 -0.0104717 -0.11268 0 0 0 -2.83678 7.80104 -6.04853 0.01 
235 1 24 0.183011 0.0157042 0.0379982 0.25952 -0.0233456 -0.150553 0 0 0 -2.83678 7.80104 -6.04853 0.01 
236 1 24 0.18843 0.0141527 0.0450144 0.304869 -0.0362194 -0.188426 0 0 0 -2.83678 7.80104 -6.04853 0.01 
237 1 24 0.193849 0.0126011 0.0520306 0.350218 -0.0490932 -0.226298 0 0 0 -2.83678 7.80104 -6.04853 0.01 
238 1 24 0.199268 0.0110496 0.0590468 0.395567 -0.061967 -0.264171 0 0 0 -2.83678 7.80104 -6.04853 0.01 
239 1 24 0.204688 0.00949808 0.0660629 0.440916 -0.0748409 -0.302044 0 0 0 -2.83678 7.80104 -6.04853 0.01 
240 1 24 0.210107 0.00794656 0.0730791 0.486265 -0.0877147 -0.339917 0 0 0 -2.83678 7.80104 -6.04853 0.01 
241 1 25 0.139816 -0.194174 0.10647 0.0942592 -0.244325 -0.237378 0 0 0 -3.40858 8.1518 10.9643 0.01 
242 1 25 0.139953 -0.189006 0.113836 0.0976449 -0.217717 -0.256109 0 0 0 -3.40858 8.1518 10.9643 0.01 
243 1 25 0.140089 -0.183838 0.121203 0.101031 -0.191108 -0.274839 0 0 0 -3.40858 8.1518 10.9643 0.01 
244 1 25 0.140226 -0.178669 0.12857 0.104416 -0.1645 -0.293569 0 0 0 -3.40858 8.1518 10.9643 0.01 
245 1 25 0.140363 -0.173501 0.135937 0.107802 -0.137892 -0.312299 0 0 0 -3.40858 8.1518 10.9643 0.01 
246 1 25 0.140499 -0.168333 0.143304 0.111188 -0.111284 -0.33103 0 0 0 -3.40858 8.1518 10.9643 0.01 
247 1 25 0.140636 -0.163164 0.15067 0.114573 -0.0846756 -0.34976 0 0 0 -3.40858 8.1518 10.9643 0.01 
248 1 25 0.140773 -0.157996 0.158037 0.117959 -0.0580674 -0.36849 0 0 0 -3.40858 8.1518 10.9643 0.01 
249 1 25 0.140909 -0.152828 0.165404 0.121345 -0.0314592 -0.387221 0 0 0 -3.40858 8.1518 10.9643 0.01 
250 1 25 0.141046 -0.147659 0.172771 0.12473 -0.00485105 -0.405951 0.551468 -0.474216 -0.0443034 -3.40858 8.1518 10.9643 0.01 
251 1 26 -0.00619444 -0.174524 0.00988998 0.00314271 -0.0447989 0.00613512 -0.0578071 -0.0772312 0.843052 4.4515 0.445202 -2.18491 0.01 
252 1 26 -0.00491468 -0.178457 0.0178834 -0.00189145 -0.0831778 -0.0119416 0 0 0 4.4515 0.445202 -2.18491 0.01 
253 1 26 -0.00363493 -0.18239 0.0258769 -0.00692561 -0.121557 -0.0300183 0 0 0 4.4515 0.445202 -2.18491 0.01 
254 1 26 -0.00235517 -0.186323 0.0338703 -0.0119598 -0.159936 -0.048095 0.00420044 -0.00314901 -0.00574289 4.4515 0.445202 -2.18491 0.01 
255 1 26 -0.00107542 -0.190255 0.0418638 -0.0169939 -0.198315 -0.0661717 0.297901 -0.243364 -0.398946 4.4515 0.445202 -2.18491 0.01 
256 1 26 0.000204338 -0.194188 0.0498572 -0.0220281 -0.236694 -0.0842484 -0.0111754 0.0451183 0.000254348 4.4515 0.445202 -2.18491 0.01 
257 1 26 0.00148409 -0.198121 0.0578507 -0.0270622 -0.275073 -0.102325 0 0 0 4.4515 0.445202 -2.18491 0.01 
258 1 26 0.00276385 -0.202054 0.0658441 -0.0320964 -0.313452 -0.120402 0 0 0 4.4515 0.445202 -2.18491 0.01 
259 1 26 0.0040436 -0.205987 0.0738375 -0.0371306 -0.351831 -0.138478 0 0 0 4.4515 0.445202 -2.18491 0.01 
260 1 26 0.00532336 -0.209919 0.081831 -0.0421647 -0.39021 -0.156555 -0.0967877 0.0550442 0.0165871 4.4515 0.445202 -2.18491 0.01 
261 1 27 -0.130663 0.20201 0.0919859 -0.256855 0.112042 -0.747806 0 0 0 -10.7497 -15.7014 11.999 0.01 
262 1 27 -0.132774 0.194806 0.0969495 -0.248344 0.140067 -0.703508 0 0 0 -10.7497 -15.7014 11.999 0.01 