ITEM: TIMESTEP
18000
ITEM: NUMBER OF ATOMS
6300
ITEM: BOX BOUNDS mm mm mm
-0.3 0.324667
-0.3 0.3
0 0.5
ITEM: ATOMS id type mol x y z vx vy vz fx fy fz omegax omegay omegaz radius 
1 1 1 -0.1159 -0.118786 0.100465 0.0302209 0.0877834 -0.0847698 0.63755 -0.967358 1.72442 2.56821 0.661059 -0.292992 0.01 
2 1 1 -0.116227 -0.119345 0.109441 0.0359911 0.0648256 -0.0859898 0 0 0 2.56821 0.661059 -0.292992 0.01 
3 1 1 -0.116555 -0.119905 0.118418 0.0417612 0.0418678 -0.0872097 0 0 0 2.56821 0.661059 -0.292992 0.01 
4 1 1 -0.116882 -0.120464 0.127394 0.0475314 0.01891 -0.0884296 0 0 0 2.56821 0.661059 -0.292992 0.01 
5 1 1 -0.11721 -0.121023 0.136371 0.0533016 -0.00404787 -0.0896495 0 0 0 2.56821 0.661059 -0.292992 0.01 
6 1 1 -0.117538 -0.121583 0.145348 0.0590718 -0.0270057 -0.0908695 0 0 0 2.56821 0.661059 -0.292992 0.01 
7 1 1 -0.117865 -0.122142 0.154324 0.064842 -0.0499635 -0.0920894 0 0 0 2.56821 0.661059 -0.292992 0.01 
8 1 1 -0.118193 -0.122701 0.163301 0.0706122 -0.0729213 -0.0933093 0 0 0 2.56821 0.661059 -0.292992 0.01 
9 1 1 -0.118521 -0.123261 0.172278 0.0763824 -0.0958792 -0.0945293 0 0 0 2.56821 0.661059 -0.292992 0.01 
10 1 1 -0.118848 -0.12382 0.181254 0.0821526 -0.118837 -0.0957492 -0.182405 -2.15509 -1.3176 2.56821 0.661059 -0.292992 0.01 
11 1 2 -0.0276167 -0.108532 0.0461783 0.214215 -0.0314295 -0.16964 -0.134573 -0.0109297 0.109585 -2.1762 -1.81192 14.351 0.01 
12 1 2 -0.0287347 -0.108561 0.0551086 0.198445 -0.0280399 -0.171603 0 0 0 -2.1762 -1.81192 14.351 0.01 
13 1 2 -0.0298527 -0.10859 0.0640388 0.182675 -0.0246504 -0.173566 0 0 0 -2.1762 -1.81192 14.351 0.01 
14 1 2 -0.0309707 -0.108618 0.0729691 0.166905 -0.0212608 -0.17553 0 0 0 -2.1762 -1.81192 14.351 0.01 
15 1 2 -0.0320887 -0.108647 0.0818993 0.151135 -0.0178712 -0.177493 0 0 0 -2.1762 -1.81192 14.351 0.01 
16 1 2 -0.0332067 -0.108675 0.0908296 0.135365 -0.0144816 -0.179457 0 0 0 -2.1762 -1.81192 14.351 0.01 
17 1 2 -0.0343247 -0.108704 0.0997598 0.119595 -0.011092 -0.18142 0 0 0 -2.1762 -1.81192 14.351 0.01 
18 1 2 -0.0354427 -0.108733 0.10869 0.103825 -0.00770242 -0.183383 0 0 0 -2.1762 -1.81192 14.351 0.01 
19 1 2 -0.0365607 -0.108761 0.11762 0.0880553 -0.00431284 -0.185347 0 0 0 -2.1762 -1.81192 14.351 0.01 
20 1 2 -0.0376787 -0.10879 0.126551 0.0722854 -0.000923249 -0.18731 -0.0694574 0.0957662 -0.0891979 -2.1762 -1.81192 14.351 0.01 
21 1 3 -0.0272836 -0.0321542 0.00932133 -0.0303705 -0.0196186 -0.0707674 -4.87212 -5.88685 17.0108 5.4807 -3.72793 3.77985 0.01 
22 1 3 -0.0296577 -0.0357037 0.0172437 -0.0464882 -0.0720127 -0.0990717 0 0 0 5.4807 -3.72793 3.77985 0.01 
23 1 3 -0.0320318 -0.0392532 0.0251662 -0.0626058 -0.124407 -0.127376 0 0 0 5.4807 -3.72793 3.77985 0.01 
24 1 3 -0.0344059 -0.0428027 0.0330886 -0.0787234 -0.176801 -0.15568 0 0 0 5.4807 -3.72793 3.77985 0.01 
25 1 3 -0.03678 -0.0463522 0.041011 -0.094841 -0.229195 -0.183984 0 0 0 5.4807 -3.72793 3.77985 0.01 
26 1 3 -0.0391541 -0.0499017 0.0489334 -0.110959 -0.281589 -0.212289 0 0 0 5.4807 -3.72793 3.77985 0.01 
27 1 3 -0.0415282 -0.0534512 0.0568558 -0.127076 -0.333983 -0.240593 0 0 0 5.4807 -3.72793 3.77985 0.01 
28 1 3 -0.0439023 -0.0570007 0.0647782 -0.143194 -0.386377 -0.268897 0 0 0 5.4807 -3.72793 3.77985 0.01 
29 1 3 -0.0462764 -0.0605502 0.0727007 -0.159312 -0.438771 -0.297201 0.143486 0.503398 0.509138 5.4807 -3.72793 3.77985 0.01 
30 1 3 -0.0486504 -0.0640997 0.0806231 -0.175429 -0.491165 -0.325506 0.794556 1.38077 -6.10131 5.4807 -3.72793 3.77985 0.01 
31 1 4 -0.0879149 0.111256 0.00998293 -0.0479782 0.0823014 -0.0131498 0.063563 -0.0909764 0.221964 -1.32453 0.0508877 4.80407 0.01 
32 1 4 -0.0879656 0.112811 0.0188475 -0.054996 0.0937993 -0.0152065 0 0 0 -1.32453 0.0508877 4.80407 0.01 
33 1 4 -0.0880163 0.114366 0.027712 -0.0620139 0.105297 -0.0172632 0 0 0 -1.32453 0.0508877 4.80407 0.01 
34 1 4 -0.088067 0.11592 0.0365766 -0.0690317 0.116795 -0.0193199 0 0 0 -1.32453 0.0508877 4.80407 0.01 
35 1 4 -0.0881176 0.117475 0.0454411 -0.0760496 0.128293 -0.0213766 0 0 0 -1.32453 0.0508877 4.80407 0.01 
36 1 4 -0.0881683 0.11903 0.0543057 -0.0830674 0.139791 -0.0234332 0 0 0 -1.32453 0.0508877 4.80407 0.01 
37 1 4 -0.088219 0.120585 0.0631702 -0.0900853 0.151289 -0.0254899 0 0 0 -1.32453 0.0508877 4.80407 0.01 
38 1 4 -0.0882697 0.122139 0.0720348 -0.0971032 0.162786 -0.0275466 0 0 0 -1.32453 0.0508877 4.80407 0.01 
39 1 4 -0.0883204 0.123694 0.0808993 -0.104121 0.174284 -0.0296033 0 0 0 -1.32453 0.0508877 4.80407 0.01 
40 1 4 -0.0883711 0.125249 0.0897639 -0.111139 0.185782 -0.03166 -0.013567 -0.00537303 -0.0324444 -1.32453 0.0508877 4.80407 0.01 
41 1 5 0.0778174 -0.134811 0.0101465 0.043906 0.0449837 0.143196 -0.0161848 -0.0300189 -0.00750607 -0.749435 0.243178 2.87276 0.01 
42 1 5 0.078313 -0.133537 0.0190421 0.0424113 0.0530741 0.142121 0 0 0 -0.749435 0.243178 2.87276 0.01 
43 1 5 0.0788086 -0.132264 0.0279378 0.0409166 0.0611646 0.141046 0 0 0 -0.749435 0.243178 2.87276 0.01 
44 1 5 0.0793042 -0.130991 0.0368335 0.0394219 0.069255 0.139971 -0.00225782 -0.000129764 -0.000968191 -0.749435 0.243178 2.87276 0.01 
45 1 5 0.0797998 -0.129717 0.0457292 0.0379272 0.0773455 0.138896 0 0 0 -0.749435 0.243178 2.87276 0.01 
46 1 5 0.0802954 -0.128444 0.0546248 0.0364324 0.0854359 0.137822 0 0 0 -0.749435 0.243178 2.87276 0.01 
47 1 5 0.080791 -0.127171 0.0635205 0.0349377 0.0935264 0.136747 0 0 0 -0.749435 0.243178 2.87276 0.01 
48 1 5 0.0812866 -0.125897 0.0724162 0.033443 0.101617 0.135672 0 0 0 -0.749435 0.243178 2.87276 0.01 
49 1 5 0.0817822 -0.124624 0.0813119 0.0319483 0.109707 0.134597 0 0 0 -0.749435 0.243178 2.87276 0.01 
50 1 5 0.0822778 -0.123351 0.0902075 0.0304536 0.117798 0.133523 -1.26064 -0.424738 -0.50936 -0.749435 0.243178 2.87276 0.01 
51 1 6 0.17479 -0.0371688 0.00991997 0.0289318 -0.120371 0.00898014 -0.197458 -0.0896971 0.433751 12.5279 2.20492 -32.0215 0.01 
52 1 6 0.172118 -0.0388428 0.0183497 -0.00608562 -0.140427 -0.00610083 0 0 0 12.5279 2.20492 -32.0215 0.01 
53 1 6 0.169446 -0.0405168 0.0267794 -0.0411031 -0.160483 -0.0211818 0 0 0 12.5279 2.20492 -32.0215 0.01 
54 1 6 0.166775 -0.0421908 0.0352091 -0.0761205 -0.180538 -0.0362628 0 0 0 12.5279 2.20492 -32.0215 0.01 
55 1 6 0.164103 -0.0438648 0.0436388 -0.111138 -0.200594 -0.0513438 0.167665 0.0757338 -0.00427199 12.5279 2.20492 -32.0215 0.01 
56 1 6 0.161431 -0.0455388 0.0520685 -0.146155 -0.22065 -0.0664247 0 0 0 12.5279 2.20492 -32.0215 0.01 
57 1 6 0.15876 -0.0472128 0.0604982 -0.181173 -0.240706 -0.0815057 0 0 0 12.5279 2.20492 -32.0215 0.01 
58 1 6 0.156088 -0.0488868 0.0689279 -0.21619 -0.260761 -0.0965867 0 0 0 12.5279 2.20492 -32.0215 0.01 
59 1 6 0.153416 -0.0505609 0.0773576 -0.251208 -0.280817 -0.111668 0 0 0 12.5279 2.20492 -32.0215 0.01 
60 1 6 0.150745 -0.0522349 0.0857873 -0.286225 -0.300873 -0.126749 -0.0457793 0.0317252 -0.191087 12.5279 2.20492 -32.0215 0.01 
61 1 7 -0.0398258 0.216604 0.00973166 0.0168712 0.0466944 0.00781377 0.827075 -0.111643 3.48553 -1.86534 0.520775 12.1647 0.01 
62 1 7 -0.0401281 0.215674 0.0186784 0.0328361 0.0597056 0.00970482 0 0 0 -1.86534 0.520775 12.1647 0.01 
63 1 7 -0.0404304 0.214745 0.0276252 0.048801 0.0727167 0.0115959 0 0 0 -1.86534 0.520775 12.1647 0.01 
64 1 7 -0.0407328 0.213816 0.036572 0.064766 0.0857279 0.0134869 0 0 0 -1.86534 0.520775 12.1647 0.01 
65 1 7 -0.0410351 0.212886 0.0455188 0.0807309 0.0987391 0.015378 0 0 0 -1.86534 0.520775 12.1647 0.01 
66 1 7 -0.0413374 0.211957 0.0544656 0.0966958 0.11175 0.017269 0 0 0 -1.86534 0.520775 12.1647 0.01 
67 1 7 -0.0416397 0.211028 0.0634123 0.112661 0.124761 0.0191601 0 0 0 -1.86534 0.520775 12.1647 0.01 
68 1 7 -0.041942 0.210098 0.0723591 0.128626 0.137773 0.0210511 0 0 0 -1.86534 0.520775 12.1647 0.01 
69 1 7 -0.0422444 0.209169 0.0813059 0.144591 0.150784 0.0229422 0 0 0 -1.86534 0.520775 12.1647 0.01 
70 1 7 -0.0425467 0.208239 0.0902527 0.160555 0.163795 0.0248332 2.38733 0.70532 -0.224376 -1.86534 0.520775 12.1647 0.01 
71 1 8 0.128852 -0.135037 0.108236 0.0201913 -0.164374 0.0102719 -0.0414875 -0.25284 0.775097 -1.08484 2.91663 -2.06199 0.01 
72 1 8 0.130182 -0.134843 0.117135 0.0465452 -0.157464 0.00618081 0.0391839 0.00183153 -0.0259572 -1.08484 2.91663 -2.06199 0.01 
73 1 8 0.131513 -0.13465 0.126034 0.0728991 -0.150554 0.00208975 0 0 0 -1.08484 2.91663 -2.06199 0.01 
74 1 8 0.132844 -0.134456 0.134933 0.099253 -0.143644 -0.00200131 0 0 0 -1.08484 2.91663 -2.06199 0.01 
75 1 8 0.134174 -0.134263 0.143832 0.125607 -0.136734 -0.00609237 0 0 0 -1.08484 2.91663 -2.06199 0.01 
76 1 8 0.135505 -0.13407 0.152731 0.151961 -0.129824 -0.0101834 0 0 0 -1.08484 2.91663 -2.06199 0.01 
77 1 8 0.136836 -0.133876 0.16163 0.178315 -0.122914 -0.0142745 0 0 0 -1.08484 2.91663 -2.06199 0.01 
78 1 8 0.138167 -0.133683 0.170529 0.204669 -0.116004 -0.0183655 0 0 0 -1.08484 2.91663 -2.06199 0.01 
79 1 8 0.139497 -0.133489 0.179428 0.231023 -0.109094 -0.0224566 0 0 0 -1.08484 2.91663 -2.06199 0.01 
80 1 8 0.140828 -0.133296 0.188327 0.257376 -0.102184 -0.0265477 0 0 0 -1.08484 2.91663 -2.06199 0.01 
81 1 9 -0.118366 0.0308214 0.106429 -0.278938 -0.0994015 -0.0486772 0.174049 0.388204 -0.121246 -4.36854 7.9462 -6.39544 0.01 
82 1 9 -0.115823 0.0296261 0.114979 -0.218641 -0.0783101 -0.0636589 0 0 0 -4.36854 7.9462 -6.39544 0.01 
83 1 9 -0.113281 0.0284307 0.123529 -0.158343 -0.0572187 -0.0786407 0 0 0 -4.36854 7.9462 -6.39544 0.01 
84 1 9 -0.110738 0.0272354 0.13208 -0.098046 -0.0361273 -0.0936225 0 0 0 -4.36854 7.9462 -6.39544 0.01 
85 1 9 -0.108195 0.0260401 0.14063 -0.0377486 -0.0150359 -0.108604 0 0 0 -4.36854 7.9462 -6.39544 0.01 
86 1 9 -0.105653 0.0248448 0.14918 0.0225487 0.00605551 -0.123586 0 0 0 -4.36854 7.9462 -6.39544 0.01 
87 1 9 -0.10311 0.0236494 0.15773 0.0828461 0.0271469 -0.138568 0 0 0 -4.36854 7.9462 -6.39544 0.01 
88 1 9 -0.100568 0.0224541 0.166281 0.143143 0.0482383 -0.153549 0 0 0 -4.36854 7.9462 -6.39544 0.01 
89 1 9 -0.0980253 0.0212588 0.174831 0.203441 0.0693297 -0.168531 0 0 0 -4.36854 7.9462 -6.39544 0.01 
90 1 9 -0.0954828 0.0200635 0.183381 0.263738 0.0904211 -0.183513 0 0 0 -4.36854 7.9462 -6.39544 0.01 
91 1 10 0.0627361 0.19939 0.110194 0.0525136 0.108636 0.0659867 0 0 0 -0.588118 -3.20223 0.786541 0.01 
92 1 10 0.0609826 0.20039 0.118965 0.0236412 0.112415 0.0597835 0 0 0 -0.588118 -3.20223 0.786541 0.01 
93 1 10 0.0592291 0.20139 0.127736 -0.00523111 0.116194 0.0535804 0 0 0 -0.588118 -3.20223 0.786541 0.01 
94 1 10 0.0574757 0.20239 0.136506 -0.0341035 0.119974 0.0473772 0 0 0 -0.588118 -3.20223 0.786541 0.01 
95 1 10 0.0557222 0.20339 0.145277 -0.0629758 0.123753 0.0411741 0 0 0 -0.588118 -3.20223 0.786541 0.01 
96 1 10 0.0539687 0.20439 0.154048 -0.0918482 0.127532 0.0349709 0 0 0 -0.588118 -3.20223 0.786541 0.01 
97 1 10 0.0522152 0.20539 0.162818 -0.120721 0.131311 0.0287678 0 0 0 -0.588118 -3.20223 0.786541 0.01 
98 1 10 0.0504617 0.20639 0.171589 -0.149593 0.13509 0.0225646 0 0 0 -0.588118 -3.20223 0.786541 0.01 
99 1 10 0.0487083 0.20739 0.18036 -0.178465 0.138869 0.0163614 0 0 0 -0.588118 -3.20223 0.786541 0.01 
100 1 10 0.0469548 0.20839 0.189131 -0.207338 0.142648 0.0101583 0 0 0 -0.588118 -3.20223 0.786541 0.01 
101 1 11 -0.213079 -0.0957713 0.0655708 -0.320957 -0.0149185 -0.380107 0 0 0 3.79487 2.28159 9.4352 0.01 
102 1 11 -0.211381 -0.0962398 0.0743968 -0.296399 -0.0323924 -0.385759 0 0 0 3.79487 2.28159 9.4352 0.01 
103 1 11 -0.209683 -0.0967083 0.0832228 -0.271842 -0.0498663 -0.391411 0 0 0 3.79487 2.28159 9.4352 0.01 
104 1 11 -0.207985 -0.0971769 0.0920488 -0.247284 -0.0673401 -0.397062 0 0 0 3.79487 2.28159 9.4352 0.01 
105 1 11 -0.206288 -0.0976454 0.100875 -0.222726 -0.084814 -0.402714 0 0 0 3.79487 2.28159 9.4352 0.01 
106 1 11 -0.20459 -0.0981139 0.109701 -0.198168 -0.102288 -0.408366 0 0 0 3.79487 2.28159 9.4352 0.01 
107 1 11 -0.202892 -0.0985824 0.118527 -0.173611 -0.119762 -0.414017 0 0 0 3.79487 2.28159 9.4352 0.01 
108 1 11 -0.201194 -0.0990509 0.127353 -0.149053 -0.137236 -0.419669 0 0 0 3.79487 2.28159 9.4352 0.01 
109 1 11 -0.199496 -0.0995194 0.136179 -0.124495 -0.154709 -0.425321 0 0 0 3.79487 2.28159 9.4352 0.01 
110 1 11 -0.197798 -0.0999879 0.145005 -0.0999374 -0.172183 -0.430973 -0.0344718 -0.096623 0.104712 3.79487 2.28159 9.4352 0.01 
111 1 12 0.0949112 0.0523045 0.107571 0.0387866 0.149479 -0.331599 0.254381 0.114356 0.322149 -0.411117 -0.245016 -4.80379 0.01 
112 1 12 0.0973472 0.0538459 0.116097 0.0441019 0.141282 -0.331636 0 0 0 -0.411117 -0.245016 -4.80379 0.01 
113 1 12 0.0997832 0.0553872 0.124623 0.0494172 0.133085 -0.331673 0 0 0 -0.411117 -0.245016 -4.80379 0.01 
114 1 12 0.102219 0.0569285 0.133149 0.0547324 0.124888 -0.33171 0 0 0 -0.411117 -0.245016 -4.80379 0.01 
115 1 12 0.104655 0.0584699 0.141675 0.0600477 0.116691 -0.331747 0 0 0 -0.411117 -0.245016 -4.80379 0.01 
116 1 12 0.107091 0.0600112 0.150201 0.065363 0.108494 -0.331784 0 0 0 -0.411117 -0.245016 -4.80379 0.01 
117 1 12 0.109527 0.0615525 0.158727 0.0706782 0.100297 -0.33182 0 0 0 -0.411117 -0.245016 -4.80379 0.01 
118 1 12 0.111963 0.0630939 0.167252 0.0759935 0.0921005 -0.331857 0 0 0 -0.411117 -0.245016 -4.80379 0.01 
119 1 12 0.114399 0.0646352 0.175778 0.0813088 0.0839036 -0.331894 0 0 0 -0.411117 -0.245016 -4.80379 0.01 
120 1 12 0.116835 0.0661765 0.184304 0.086624 0.0757067 -0.331931 0 0 0 -0.411117 -0.245016 -4.80379 0.01 
121 1 13 -0.0133309 0.22788 0.105107 0.0272445 0.198687 -0.150588 -0.118932 0.0463739 0.602198 1.14562 -6.10007 10.4374 0.01 
122 1 13 -0.0149373 0.225384 0.113604 0.00147209 0.172187 -0.163247 0 0 0 1.14562 -6.10007 10.4374 0.01 
123 1 13 -0.0165437 0.222887 0.1221 -0.0243003 0.145687 -0.175906 0 0 0 1.14562 -6.10007 10.4374 0.01 
124 1 13 -0.0181501 0.220391 0.130596 -0.0500727 0.119187 -0.188565 0 0 0 1.14562 -6.10007 10.4374 0.01 
125 1 13 -0.0197565 0.217895 0.139093 -0.0758451 0.0926871 -0.201224 0 0 0 1.14562 -6.10007 10.4374 0.01 
126 1 13 -0.0213629 0.215398 0.147589 -0.101618 0.0661871 -0.213883 0 0 0 1.14562 -6.10007 10.4374 0.01 
127 1 13 -0.0229692 0.212902 0.156085 -0.12739 0.0396871 -0.226542 0 0 0 1.14562 -6.10007 10.4374 0.01 
128 1 13 -0.0245756 0.210405 0.164581 -0.153162 0.013187 -0.239201 0 0 0 1.14562 -6.10007 10.4374 0.01 
129 1 13 -0.026182 0.207909 0.173078 -0.178935 -0.013313 -0.25186 0 0 0 1.14562 -6.10007 10.4374 0.01 
130 1 13 -0.0277884 0.205413 0.181574 -0.204707 -0.039813 -0.264519 -0.000694675 -0.130213 -0.0599222 1.14562 -6.10007 10.4374 0.01 
131 1 14 -0.0462545 0.121259 0.00991644 0.0171224 0.0280157 2.29404e-05 0.059583 0.0631211 0.638061 -2.82405 1.73009 -3.69258 0.01 
132 1 14 -0.0448524 0.122699 0.0186892 0.0376164 0.0476132 -0.00646858 0 0 0 -2.82405 1.73009 -3.69258 0.01 
133 1 14 -0.0434504 0.124139 0.027462 0.0581104 0.0672108 -0.0129601 0 0 0 -2.82405 1.73009 -3.69258 0.01 
134 1 14 -0.0420483 0.125579 0.0362347 0.0786044 0.0868083 -0.0194516 0 0 0 -2.82405 1.73009 -3.69258 0.01 
135 1 14 -0.0406462 0.127018 0.0450075 0.0990983 0.106406 -0.0259431 0 0 0 -2.82405 1.73009 -3.69258 0.01 
136 1 14 -0.0392442 0.128458 0.0537803 0.119592 0.126003 -0.0324347 0 0 0 -2.82405 1.73009 -3.69258 0.01 
137 1 14 -0.0378421 0.129898 0.062553 0.140086 0.145601 -0.0389262 0 0 0 -2.82405 1.73009 -3.69258 0.01 
138 1 14 -0.0364401 0.131337 0.0713258 0.16058 0.165198 -0.0454177 0 0 0 -2.82405 1.73009 -3.69258 0.01 
139 1 14 -0.035038 0.132777 0.0800986 0.181074 0.184796 -0.0519092 0 0 0 -2.82405 1.73009 -3.69258 0.01 
140 1 14 -0.033636 0.134217 0.0888714 0.201568 0.204393 -0.0584007 0 0 0 -2.82405 1.73009 -3.69258 0.01 
141 1 15 -0.00777999 -0.0673778 0.0183909 0.194463 0.154658 -0.10045 0 0 0 3.35536 -6.5001 -8.56677 0.01 
142 1 15 -0.00850934 -0.0676561 0.0273569 0.133798 0.130821 -0.106125 0 0 0 3.35536 -6.5001 -8.56677 0.01 
143 1 15 -0.00923868 -0.0679345 0.036323 0.073133 0.106985 -0.1118 0 0 0 3.35536 -6.5001 -8.56677 0.01 
144 1 15 -0.00996802 -0.0682129 0.0452891 0.0124679 0.0831487 -0.117475 0 0 0 3.35536 -6.5001 -8.56677 0.01 
145 1 15 -0.0106974 -0.0684912 0.0542552 -0.0481971 0.0593124 -0.123149 -0.157777 -0.135046 0.0830552 3.35536 -6.5001 -8.56677 0.01 
146 1 15 -0.0114267 -0.0687696 0.0632213 -0.108862 0.0354761 -0.128824 0.271794 0.207535 0.20584 3.35536 -6.5001 -8.56677 0.01 
147 1 15 -0.0121561 -0.069048 0.0721873 -0.169527 0.0116397 -0.134499 0 0 0 3.35536 -6.5001 -8.56677 0.01 
148 1 15 -0.0128854 -0.0693263 0.0811534 -0.230192 -0.0121966 -0.140174 0 0 0 3.35536 -6.5001 -8.56677 0.01 
149 1 15 -0.0136147 -0.0696047 0.0901195 -0.290857 -0.0360329 -0.145849 0 0 0 3.35536 -6.5001 -8.56677 0.01 
150 1 15 -0.0143441 -0.069883 0.0990856 -0.351522 -0.0598692 -0.151524 0 0 0 3.35536 -6.5001 -8.56677 0.01 
151 1 16 -0.037775 0.176785 0.0114676 0.00235697 0.0304264 0.19528 0 0 0 -2.08013 0.00716622 -1.63089 0.01 
152 1 16 -0.0375377 0.178009 0.0203807 0.00441785 0.0485801 0.192732 0 0 0 -2.08013 0.00716622 -1.63089 0.01 
153 1 16 -0.0373005 0.179234 0.0292939 0.00647874 0.0667337 0.190183 0 0 0 -2.08013 0.00716622 -1.63089 0.01 
154 1 16 -0.0370633 0.180458 0.038207 0.00853963 0.0848874 0.187634 0 0 0 -2.08013 0.00716622 -1.63089 0.01 
155 1 16 -0.0368261 0.181683 0.0471202 0.0106005 0.103041 0.185085 0 0 0 -2.08013 0.00716622 -1.63089 0.01 
156 1 16 -0.0365888 0.182907 0.0560333 0.0126614 0.121195 0.182536 0 0 0 -2.08013 0.00716622 -1.63089 0.01 
157 1 16 -0.0363516 0.184132 0.0649465 0.0147223 0.139348 0.179988 0 0 0 -2.08013 0.00716622 -1.63089 0.01 
158 1 16 -0.0361144 0.185356 0.0738597 0.0167832 0.157502 0.177439 0 0 0 -2.08013 0.00716622 -1.63089 0.01 
159 1 16 -0.0358771 0.18658 0.0827728 0.0188441 0.175656 0.17489 0 0 0 -2.08013 0.00716622 -1.63089 0.01 
160 1 16 -0.0356399 0.187805 0.091686 0.0209049 0.193809 0.172341 0 0 0 -2.08013 0.00716622 -1.63089 0.01 
161 1 17 0.0726477 0.0924412 0.0099321 0.0188887 -0.0259211 -0.00369127 0.0223036 -0.0317854 0.53234 2.63241 1.92066 2.25123 0.01 
162 1 17 0.0733186 0.0915204 0.0188597 0.0381084 -0.047912 -0.00740355 0 0 0 2.63241 1.92066 2.25123 0.01 
163 1 17 0.0739894 0.0905997 0.0277873 0.0573282 -0.069903 -0.0111158 0 0 0 2.63241 1.92066 2.25123 0.01 
164 1 17 0.0746602 0.0896789 0.0367149 0.0765479 -0.0918939 -0.0148281 0 0 0 2.63241 1.92066 2.25123 0.01 
165 1 17 0.0753311 0.0887582 0.0456425 0.0957676 -0.113885 -0.0185404 0 0 0 2.63241 1.92066 2.25123 0.01 
166 1 17 0.0760019 0.0878374 0.0545701 0.114987 -0.135876 -0.0222527 0 0 0 2.63241 1.92066 2.25123 0.01 
167 1 17 0.0766728 0.0869167 0.0634977 0.134207 -0.157867 -0.0259649 0 0 0 2.63241 1.92066 2.25123 0.01 
168 1 17 0.0773436 0.0859959 0.0724253 0.153427 -0.179858 -0.0296772 0 0 0 2.63241 1.92066 2.25123 0.01 
169 1 17 0.0780145 0.0850751 0.081353 0.172646 -0.201849 -0.0333895 0 0 0 2.63241 1.92066 2.25123 0.01 
170 1 17 0.0786853 0.0841544 0.0902806 0.191866 -0.22384 -0.0371018 0 0 0 2.63241 1.92066 2.25123 0.01 
171 1 18 -0.260456 -0.0457107 0.08667 -0.51328 -0.0971751 -0.54897 0 0 0 -2.72925 10.3427 9.95346 0.01 
172 1 18 -0.257618 -0.0442026 0.0950769 -0.441341 -0.0459898 -0.582431 0 0 0 -2.72925 10.3427 9.95346 0.01 
173 1 18 -0.254781 -0.0426946 0.103484 -0.369402 0.00519558 -0.615893 0 0 0 -2.72925 10.3427 9.95346 0.01 
174 1 18 -0.251944 -0.0411865 0.111891 -0.297464 0.0563809 -0.649354 0 0 0 -2.72925 10.3427 9.95346 0.01 
175 1 18 -0.249106 -0.0396784 0.120298 -0.225525 0.107566 -0.682815 0 0 0 -2.72925 10.3427 9.95346 0.01 
176 1 18 -0.246269 -0.0381704 0.128704 -0.153586 0.158752 -0.716276 0 0 0 -2.72925 10.3427 9.95346 0.01 
177 1 18 -0.243432 -0.0366623 0.137111 -0.0816469 0.209937 -0.749737 0 0 0 -2.72925 10.3427 9.95346 0.01 
178 1 18 -0.240594 -0.0351542 0.145518 -0.00970803 0.261122 -0.783198 0 0 0 -2.72925 10.3427 9.95346 0.01 
179 1 18 -0.237757 -0.0336462 0.153925 0.0622308 0.312308 -0.816659 0 0 0 -2.72925 10.3427 9.95346 0.01 
180 1 18 -0.23492 -0.0321381 0.162332 0.13417 0.363493 -0.85012 0 0 0 -2.72925 10.3427 9.95346 0.01 
181 1 19 0.00581233 0.174887 0.110088 0.194335 0.130205 0.0642646 0.567561 -0.0197975 -0.421195 3.87633 -9.58715 12.7895 0.01 
182 1 19 0.00649861 0.172713 0.118795 0.138673 0.105233 0.0624158 0 0 0 3.87633 -9.58715 12.7895 0.01 
183 1 19 0.00718488 0.170539 0.127501 0.0830118 0.0802615 0.0605669 0 0 0 3.87633 -9.58715 12.7895 0.01 
184 1 19 0.00787115 0.168364 0.136207 0.0273502 0.0552897 0.058718 0 0 0 3.87633 -9.58715 12.7895 0.01 
185 1 19 0.00855743 0.16619 0.144914 -0.0283114 0.0303178 0.0568692 0 0 0 3.87633 -9.58715 12.7895 0.01 
186 1 19 0.0092437 0.164016 0.15362 -0.083973 0.00534597 0.0550203 0.257593 0.0534203 0.068274 3.87633 -9.58715 12.7895 0.01 
187 1 19 0.00992998 0.161841 0.162327 -0.139635 -0.0196259 0.0531714 0 0 0 3.87633 -9.58715 12.7895 0.01 
188 1 19 0.0106162 0.159667 0.171033 -0.195296 -0.0445977 0.0513226 0 0 0 3.87633 -9.58715 12.7895 0.01 
189 1 19 0.0113025 0.157493 0.179739 -0.250958 -0.0695696 0.0494737 0 0 0 3.87633 -9.58715 12.7895 0.01 
190 1 19 0.0119888 0.155318 0.188446 -0.306619 -0.0945414 0.0476248 0 0 0 3.87633 -9.58715 12.7895 0.01 
191 1 20 -0.0063318 0.188689 0.00990749 -0.00170002 0.0312862 -0.00203778 0.0301207 0.182652 0.782472 -3.41207 -0.113131 0.251767 0.01 
192 1 20 -0.00578455 0.190375 0.0187311 -0.00312292 0.0615306 -0.00773132 0 0 0 -3.41207 -0.113131 0.251767 0.01 
193 1 20 -0.00523729 0.192062 0.0275546 -0.00454582 0.0917751 -0.0134248 0 0 0 -3.41207 -0.113131 0.251767 0.01 
194 1 20 -0.00469003 0.193749 0.0363782 -0.00596872 0.122019 -0.0191184 0 0 0 -3.41207 -0.113131 0.251767 0.01 
195 1 20 -0.00414277 0.195436 0.0452017 -0.00739162 0.152264 -0.0248119 0 0 0 -3.41207 -0.113131 0.251767 0.01 
196 1 20 -0.00359552 0.197122 0.0540253 -0.00881452 0.182508 -0.0305055 0 0 0 -3.41207 -0.113131 0.251767 0.01 
197 1 20 -0.00304826 0.198809 0.0628489 -0.0102374 0.212753 -0.036199 0 0 0 -3.41207 -0.113131 0.251767 0.01 
198 1 20 -0.002501 0.200496 0.0716724 -0.0116603 0.242997 -0.0418925 0 0 0 -3.41207 -0.113131 0.251767 0.01 
199 1 20 -0.00195374 0.202183 0.080496 -0.0130832 0.273242 -0.0475861 0 0 0 -3.41207 -0.113131 0.251767 0.01 
200 1 20 -0.00140648 0.20387 0.0893196 -0.0145061 0.303486 -0.0532796 -0.0531657 0.18912 -0.103826 -3.41207 -0.113131 0.251767 0.01 
201 1 21 0.0181575 0.00575572 0.009949 -0.00787075 0.0379244 -0.000885068 -0.0129266 0.0384266 0.318548 -3.85857 -0.796493 -6.05976 0.01 
202 1 21 0.0174757 0.00813811 0.0186011 -0.000325477 0.0754405 -0.0106207 0 0 0 -3.85857 -0.796493 -6.05976 0.01 
203 1 21 0.016794 0.0105205 0.0272533 0.0072198 0.112957 -0.0203563 0 0 0 -3.85857 -0.796493 -6.05976 0.01 
204 1 21 0.0161122 0.0129029 0.0359054 0.0147651 0.150473 -0.0300918 0 0 0 -3.85857 -0.796493 -6.05976 0.01 
205 1 21 0.0154305 0.0152852 0.0445575 0.0223104 0.187989 -0.0398274 0 0 0 -3.85857 -0.796493 -6.05976 0.01 
206 1 21 0.0147487 0.0176676 0.0532097 0.0298556 0.225505 -0.049563 0 0 0 -3.85857 -0.796493 -6.05976 0.01 
207 1 21 0.0140669 0.02005 0.0618618 0.0374009 0.263021 -0.0592986 0 0 0 -3.85857 -0.796493 -6.05976 0.01 
208 1 21 0.0133852 0.0224324 0.070514 0.0449462 0.300537 -0.0690342 0 0 0 -3.85857 -0.796493 -6.05976 0.01 
209 1 21 0.0127034 0.0248148 0.0791661 0.0524915 0.338053 -0.0787698 0 0 0 -3.85857 -0.796493 -6.05976 0.01 
210 1 21 0.0120217 0.0271972 0.0878182 0.0600367 0.37557 -0.0885054 0 0 0 -3.85857 -0.796493 -6.05976 0.01 
211 1 22 0.00437577 0.217941 0.105296 0.11761 0.234552 -0.206793 0.620234 -0.0286423 2.84727 6.75943 -2.92967 -3.03489 0.01 
212 1 22 0.00302941 0.214078 0.113312 0.0823996 0.184452 -0.236851 0 0 0 6.75943 -2.92967 -3.03489 0.01 
213 1 22 0.00168305 0.210214 0.121329 0.0471895 0.134352 -0.26691 0 0 0 6.75943 -2.92967 -3.03489 0.01 
214 1 22 0.000336683 0.206351 0.129345 0.0119794 0.0842523 -0.296968 0 0 0 6.75943 -2.92967 -3.03489 0.01 
215 1 22 -0.00100968 0.202488 0.137361 -0.0232307 0.0341524 -0.327027 0 0 0 6.75943 -2.92967 -3.03489 0.01 
216 1 22 -0.00235604 0.198624 0.145378 -0.0584408 -0.0159475 -0.357085 0 0 0 6.75943 -2.92967 -3.03489 0.01 
217 1 22 -0.00370241 0.194761 0.153394 -0.0936509 -0.0660474 -0.387144 0 0 0 6.75943 -2.92967 -3.03489 0.01 
218 1 22 -0.00504877 0.190897 0.161411 -0.128861 -0.116147 -0.417202 0 0 0 6.75943 -2.92967 -3.03489 0.01 
219 1 22 -0.00639513 0.187034 0.169427 -0.164071 -0.166247 -0.447261 0 0 0 6.75943 -2.92967 -3.03489 0.01 
220 1 22 -0.0077415 0.183171 0.177443 -0.199281 -0.216347 -0.477319 0 0 0 6.75943 -2.92967 -3.03489 0.01 
221 1 23 0.208775 0.0524947 0.111491 -0.224701 0.0531841 -0.121771 0 0 0 -1.96876 1.74123 -1.21229 0.01 
222 1 23 0.208615 0.0542436 0.120318 -0.207211 0.0707566 -0.124935 0 0 0 -1.96876 1.74123 -1.21229 0.01 
223 1 23 0.208454 0.0559926 0.129145 -0.189721 0.0883292 -0.128099 0 0 0 -1.96876 1.74123 -1.21229 0.01 
224 1 23 0.208294 0.0577415 0.137972 -0.172231 0.105902 -0.131263 0 0 0 -1.96876 1.74123 -1.21229 0.01 
225 1 23 0.208134 0.0594904 0.146799 -0.154741 0.123474 -0.134427 0 0 0 -1.96876 1.74123 -1.21229 0.01 
226 1 23 0.207973 0.0612394 0.155626 -0.137251 0.141047 -0.137591 0 0 0 -1.96876 1.74123 -1.21229 0.01 
227 1 23 0.207813 0.0629883 0.164453 -0.119761 0.158619 -0.140755 0 0 0 -1.96876 1.74123 -1.21229 0.01 
228 1 23 0.207653 0.0647373 0.17328 -0.102271 0.176192 -0.143919 0 0 0 -1.96876 1.74123 -1.21229 0.01 
229 1 23 0.207492 0.0664862 0.182107 -0.0847806 0.193764 -0.147083 0 0 0 -1.96876 1.74123 -1.21229 0.01 
230 1 23 0.207332 0.0682352 0.190934 -0.0672906 0.211337 -0.150247 0 0 0 -1.96876 1.74123 -1.21229 0.01 
231 1 24 0.158654 0.0227009 0.00985454 0.0118035 -0.0145716 0.0351649 0.100117 -0.0897667 0.719683 1.23731 0.501043 15.1689 0.01 
232 1 24 0.160743 0.0206021 0.0183535 0.0478979 0.00659665 0.0315215 0 0 0 1.23731 0.501043 15.1689 0.01 
233 1 24 0.162832 0.0185034 0.0268525 0.0839922 0.0277649 0.0278782 0 0 0 1.23731 0.501043 15.1689 0.01 
234 1 24 0.164921 0.0164046 0.0353514 0.120087 0.0489331 0.0242348 0 0 0 1.23731 0.501043 15.1689 0.01 
235 1 24 0.167009 0.0143058 0.0438504 0.156181 0.0701013 0.0205914 0 0 0 1.23731 0.501043 15.1689 0.01 
236 1 24 0.169098 0.0122071 0.0523493 0.192275 0.0912696 0.016948 0 0 0 1.23731 0.501043 15.1689 0.01 
237 1 24 0.171187 0.0101083 0.0608483 0.22837 0.112438 0.0133046 0 0 0 1.23731 0.501043 15.1689 0.01 
238 1 24 0.173276 0.00800954 0.0693472 0.264464 0.133606 0.00966126 0 0 0 1.23731 0.501043 15.1689 0.01 
239 1 24 0.175364 0.00591077 0.0778462 0.300559 0.154774 0.00601788 0 0 0 1.23731 0.501043 15.1689 0.01 
240 1 24 0.177453 0.003812 0.0863452 0.336653 0.175943 0.00237451 -0.0115043 0.0316535 -0.46473 1.23731 0.501043 15.1689 0.01 
241 1 25 0.135011 -0.175762 0.110419 0.0336764 -0.119535 0.0884879 0.00905696 -0.00365669 -0.245394 -3.75685 -0.312884 2.15931 0.01 
242 1 25 0.135558 -0.175056 0.119375 0.029351 -0.0847107 0.0860085 0 0 0 -3.75685 -0.312884 2.15931 0.01 
243 1 25 0.136104 -0.174351 0.128331 0.0250256 -0.0498859 0.0835291 0 0 0 -3.75685 -0.312884 2.15931 0.01 
244 1 25 0.136651 -0.173645 0.137286 0.0207001 -0.0150611 0.0810497 0 0 0 -3.75685 -0.312884 2.15931 0.01 
245 1 25 0.137197 -0.17294 0.146242 0.0163747 0.0197637 0.0785703 0 0 0 -3.75685 -0.312884 2.15931 0.01 
246 1 25 0.137743 -0.172235 0.155197 0.0120493 0.0545885 0.0760909 0 0 0 -3.75685 -0.312884 2.15931 0.01 
247 1 25 0.13829 -0.171529 0.164153 0.00772392 0.0894133 0.0736115 0 0 0 -3.75685 -0.312884 2.15931 0.01 
248 1 25 0.138836 -0.170824 0.173109 0.00339851 0.124238 0.0711321 0 0 0 -3.75685 -0.312884 2.15931 0.01 
249 1 25 0.139382 -0.170118 0.182064 -0.000926904 0.159063 0.0686527 0 0 0 -3.75685 -0.312884 2.15931 0.01 
250 1 25 0.139929 -0.169413 0.19102 -0.00525231 0.193888 0.0661734 0 0 0 -3.75685 -0.312884 2.15931 0.01 
251 1 26 -0.00673057 -0.170815 0.00994038 -0.00560212 -0.0185163 -0.0072925 0.0727059 -0.0640372 0.508197 2.10131 -0.337712 3.22065 0.01 
252 1 26 -0.00553318 -0.172349 0.0187275 -0.0036301 -0.0331245 -0.0101109 0 0 0 2.10131 -0.337712 3.22065 0.01 
253 1 26 -0.0043358 -0.173883 0.0275147 -0.00165808 -0.0477327 -0.0129294 0 0 0 2.10131 -0.337712 3.22065 0.01 
254 1 26 -0.00313841 -0.175416 0.0363018 0.000313938 -0.0623409 -0.0157478 0 0 0 2.10131 -0.337712 3.22065 0.01 
255 1 26 -0.00194103 -0.17695 0.045089 0.00228596 -0.0769491 -0.0185663 0 0 0 2.10131 -0.337712 3.22065 0.01 
256 1 26 -0.000743639 -0.178484 0.0538761 0.00425798 -0.0915573 -0.0213847 0 0 0 2.10131 -0.337712 3.22065 0.01 
257 1 26 0.000453747 -0.180017 0.0626633 0.00623 -0.106165 -0.0242031 0 0 0 2.10131 -0.337712 3.22065 0.01 
258 1 26 0.00165113 -0.181551 0.0714504 0.00820202 -0.120774 -0.0270216 0 0 0 2.10131 -0.337712 3.22065 0.01 
259 1 26 0.00284852 -0.183085 0.0802376 0.010174 -0.135382 -0.02984 0 0 0 2.10131 -0.337712 3.22065 0.01 
260 1 26 0.00404591 -0.184619 0.0890247 0.0121461 -0.14999 -0.0326584 -0.148591 -0.109104 -0.22934 2.10131 -0.337712 3.22065 0.01 
261 1 27 -0.122692 0.176605 0.115934 0.0822252 0.484732 -0.0918892 0 0 0 8.9362 0.0601391 -0.664278 0.01 
262 1 27 -0.125254 0.172248 0.123381 0.0797784 0.419891 -0.130675 0 0 0 8.9362 0.0601391 -0.664278 0.01 
263 1 27 -0.127816 0.16789 0.130827 0.0773315 0.355049 -0.169461 -0.449928 0.243982 0.177087 8.9362 0.0601391 -0.664278 0.01 
264 1 27 -0.130377 0.163533 0.138274 0.0748847 0.290208 -0.208247 0 0 0 8.9362 0.0601391 -0.664278 0.01 
265 1 27 -0.132939 0.159175 0.14572 0.0724379 0.225366 -0.247033 0 0 0 8.9362 0.0601391 -0.664278 0.01 
266 1 27 -0.135501 0.154818 0.153167 0.0699911 0.160525 -0.285819 0 0 0 8.9362 0.0601391 -0.664278 0.01 
267 1 27 -0.138062 0.15046 0.160613 0.0675443 0.0956837 -0.324605 0 0 0 8.9362 0.0601391 -0.664278 0.01 
268 1 27 -0.140624 0.146103 0.168059 0.0650975 0.0308424 -0.363391 0 0 0 8.9362 0.0601391 -0.664278 0.01 
269 1 27 -0.143186 0.141745 0.175506 0.0626507 -0.033999 -0.402177 0 0 0 8.9362 0.0601391 -0.664278 0.01 
270 1 27 -0.145747 0.137387 0.182952 0.0602039 -0.0988403 -0.440963 0 0 0 8.9362 0.0601391 -0.664278 0.01 