ITEM: TIMESTEP
8000
ITEM: NUMBER OF ATOMS
6300
ITEM: BOX BOUNDS mm mm mm
-0.3 0.3
-0.3 0.3
0 0.5
ITEM: ATOMS id type mol x y z vx vy vz fx fy fz omegax omegay omegaz radius 
1 1 1 -0.115317 -0.129414 0.132806 0 0 -1.78475 0 0 0 0 0 0 0.01 
2 1 1 -0.115317 -0.129414 0.141806 0 0 -1.78475 0 0 0 0 0 0 0.01 
3 1 1 -0.115317 -0.129414 0.150806 0 0 -1.78475 0 0 0 0 0 0 0.01 
4 1 1 -0.115317 -0.129414 0.159806 0 0 -1.78475 0 0 0 0 0 0 0.01 
5 1 1 -0.115317 -0.129414 0.168806 0 0 -1.78475 0 0 0 0 0 0 0.01 
6 1 1 -0.115317 -0.129414 0.177806 0 0 -1.78475 0 0 0 0 0 0 0.01 
7 1 1 -0.115317 -0.129414 0.186806 0 0 -1.78475 0 0 0 0 0 0 0.01 
8 1 1 -0.115317 -0.129414 0.195806 0 0 -1.78475 0 0 0 0 0 0 0.01 
9 1 1 -0.115317 -0.129414 0.204806 0 0 -1.78475 0 0 0 0 0 0 0.01 
10 1 1 -0.115317 -0.129414 0.213806 0 0 -1.78475 0 0 0 0 0 0 0.01 
11 1 2 -0.0460582 -0.101391 0.122346 0 0 -1.78475 0 0 0 0 0 0 0.01 
12 1 2 -0.0460582 -0.101391 0.131346 0 0 -1.78475 0 0 0 0 0 0 0.01 
13 1 2 -0.0460582 -0.101391 0.140346 0 0 -1.78475 0 0 0 0 0 0 0.01 
14 1 2 -0.0460582 -0.101391 0.149346 0 0 -1.78475 0 0 0 0 0 0 0.01 
15 1 2 -0.0460582 -0.101391 0.158346 0 0 -1.78475 0 0 0 0 0 0 0.01 
16 1 2 -0.0460582 -0.101391 0.167346 0 0 -1.78475 0 0 0 0 0 0 0.01 
17 1 2 -0.0460582 -0.101391 0.176346 0 0 -1.78475 0 0 0 0 0 0 0.01 
18 1 2 -0.0460582 -0.101391 0.185346 0 0 -1.78475 0 0 0 0 0 0 0.01 
19 1 2 -0.0460582 -0.101391 0.194346 0 0 -1.78475 0 0 0 0 0 0 0.01 
20 1 2 -0.0460582 -0.101391 0.203346 0 0 -1.78475 0 0 0 0 0 0 0.01 
21 1 3 -0.0413477 -0.0327304 0.110194 0.125101 -0.0786663 -1.19053 -0.160282 13.474 33.1074 -2.21758 -1.59598 -1.19081 0.01 
22 1 3 -0.0416035 -0.0325434 0.119189 0.110969 -0.0584159 -1.19135 0 0 0 -2.21758 -1.59598 -1.19081 0.01 
23 1 3 -0.0418592 -0.0323563 0.128183 0.0968367 -0.0381655 -1.19218 0 0 0 -2.21758 -1.59598 -1.19081 0.01 
24 1 3 -0.0421149 -0.0321693 0.137178 0.0827045 -0.0179151 -1.193 0 0 0 -2.21758 -1.59598 -1.19081 0.01 
25 1 3 -0.0423707 -0.0319823 0.146172 0.0685722 0.00233528 -1.19382 0 0 0 -2.21758 -1.59598 -1.19081 0.01 
26 1 3 -0.0426264 -0.0317952 0.155167 0.05444 0.0225857 -1.19464 0 0 0 -2.21758 -1.59598 -1.19081 0.01 
27 1 3 -0.0428821 -0.0316082 0.164161 0.0403078 0.0428361 -1.19547 0 0 0 -2.21758 -1.59598 -1.19081 0.01 
28 1 3 -0.0431379 -0.0314212 0.173155 0.0261755 0.0630865 -1.19629 0 0 0 -2.21758 -1.59598 -1.19081 0.01 
29 1 3 -0.0433936 -0.0312341 0.18215 0.0120433 0.0833369 -1.19711 0 0 0 -2.21758 -1.59598 -1.19081 0.01 
30 1 3 -0.0436493 -0.0310471 0.191144 -0.00208891 0.103587 -1.19794 0 0 0 -2.21758 -1.59598 -1.19081 0.01 
31 1 4 -0.0929903 0.110329 0.0491664 0 0 -1.78475 0 0 0 0 0 0 0.01 
32 1 4 -0.0929903 0.110329 0.0581664 0 0 -1.78475 0 0 0 0 0 0 0.01 
33 1 4 -0.0929903 0.110329 0.0671664 0 0 -1.78475 0 0 0 0 0 0 0.01 
34 1 4 -0.0929903 0.110329 0.0761664 0 0 -1.78475 0 0 0 0 0 0 0.01 
35 1 4 -0.0929903 0.110329 0.0851664 0 0 -1.78475 0 0 0 0 0 0 0.01 
36 1 4 -0.0929903 0.110329 0.0941664 0 0 -1.78475 0 0 0 0 0 0 0.01 
37 1 4 -0.0929903 0.110329 0.103166 0 0 -1.78475 0 0 0 0 0 0 0.01 
38 1 4 -0.0929903 0.110329 0.112166 0 0 -1.78475 0 0 0 0 0 0 0.01 
39 1 4 -0.0929903 0.110329 0.121166 0 0 -1.78475 0 0 0 0 0 0 0.01 
40 1 4 -0.0929903 0.110329 0.130166 0 0 -1.78475 0 0 0 0 0 0 0.01 
41 1 5 0.0778931 -0.133802 0.104799 0.0320607 0.149484 -0.282564 0 0 0 -2.67102 -0.892699 -0.892639 0.01 
42 1 5 0.0778167 -0.133452 0.113792 0.0243453 0.173573 -0.283567 0 0 0 -2.67102 -0.892699 -0.892639 0.01 
43 1 5 0.0777402 -0.133102 0.122784 0.0166298 0.197661 -0.28457 0 0 0 -2.67102 -0.892699 -0.892639 0.01 
44 1 5 0.0776638 -0.132752 0.131777 0.00891432 0.221749 -0.285573 0 0 0 -2.67102 -0.892699 -0.892639 0.01 
45 1 5 0.0775873 -0.132402 0.14077 0.00119884 0.245837 -0.286576 0 0 0 -2.67102 -0.892699 -0.892639 0.01 
46 1 5 0.0775109 -0.132052 0.149763 -0.00651663 0.269926 -0.28758 0 0 0 -2.67102 -0.892699 -0.892639 0.01 
47 1 5 0.0774344 -0.131702 0.158756 -0.0142321 0.294014 -0.288583 0 0 0 -2.67102 -0.892699 -0.892639 0.01 
48 1 5 0.077358 -0.131352 0.167749 -0.0219476 0.318102 -0.289586 0 0 0 -2.67102 -0.892699 -0.892639 0.01 
49 1 5 0.0772816 -0.131002 0.176742 -0.0296631 0.342191 -0.290589 0 0 0 -2.67102 -0.892699 -0.892639 0.01 
50 1 5 0.0772051 -0.130652 0.185734 -0.0373785 0.366279 -0.291592 0 0 0 -2.67102 -0.892699 -0.892639 0.01 
51 1 6 0.171196 -0.043782 0.0982885 0.106594 0.225868 -1.52499 -1.10886 -1.59535 0.642874 3.10864 -1.2943 -2.17491 0.01 
52 1 6 0.171155 -0.0438716 0.107288 0.0947511 0.197981 -1.52532 0 0 0 3.10864 -1.2943 -2.17491 0.01 
53 1 6 0.171114 -0.0439612 0.116287 0.0829083 0.170095 -1.52565 0 0 0 3.10864 -1.2943 -2.17491 0.01 
54 1 6 0.171072 -0.0440508 0.125287 0.0710655 0.142209 -1.52598 0 0 0 3.10864 -1.2943 -2.17491 0.01 
55 1 6 0.171031 -0.0441404 0.134286 0.0592227 0.114323 -1.52631 0 0 0 3.10864 -1.2943 -2.17491 0.01 
56 1 6 0.17099 -0.04423 0.143286 0.0473798 0.0864364 -1.52664 0 0 0 3.10864 -1.2943 -2.17491 0.01 
57 1 6 0.170948 -0.0443196 0.152285 0.035537 0.0585502 -1.52698 0 0 0 3.10864 -1.2943 -2.17491 0.01 
58 1 6 0.170907 -0.0444091 0.161285 0.0236942 0.030664 -1.52731 0 0 0 3.10864 -1.2943 -2.17491 0.01 
59 1 6 0.170866 -0.0444987 0.170284 0.0118513 0.00277772 -1.52764 0 0 0 3.10864 -1.2943 -2.17491 0.01 
60 1 6 0.170824 -0.0445883 0.179284 8.51123e-06 -0.0251085 -1.52797 0 0 0 3.10864 -1.2943 -2.17491 0.01 
61 1 7 -0.0369062 0.215855 0.100129 0 0 -1.78475 0 0 0 0 0 0 0.01 
62 1 7 -0.0369062 0.215855 0.109129 0 0 -1.78475 0 0 0 0 0 0 0.01 
63 1 7 -0.0369062 0.215855 0.118129 0 0 -1.78475 0 0 0 0 0 0 0.01 
64 1 7 -0.0369062 0.215855 0.127129 0 0 -1.78475 0 0 0 0 0 0 0.01 
65 1 7 -0.0369062 0.215855 0.136129 0 0 -1.78475 0 0 0 0 0 0 0.01 
66 1 7 -0.0369062 0.215855 0.145129 0 0 -1.78475 0 0 0 0 0 0 0.01 
67 1 7 -0.0369062 0.215855 0.154129 0 0 -1.78475 0 0 0 0 0 0 0.01 
68 1 7 -0.0369062 0.215855 0.163129 0 0 -1.78475 0 0 0 0 0 0 0.01 
69 1 7 -0.0369062 0.215855 0.172129 0 0 -1.78475 0 0 0 0 0 0 0.01 
70 1 7 -0.0369062 0.215855 0.181129 0 0 -1.78475 0 0 0 0 0 0 0.01 
71 1 8 0.122768 -0.136526 0.114986 0 0 -1.78475 0 0 0 0 0 0 0.01 
72 1 8 0.122768 -0.136526 0.123986 0 0 -1.78475 0 0 0 0 0 0 0.01 
73 1 8 0.122768 -0.136526 0.132986 0 0 -1.78475 0 0 0 0 0 0 0.01 
74 1 8 0.122768 -0.136526 0.141986 0 0 -1.78475 0 0 0 0 0 0 0.01 
75 1 8 0.122768 -0.136526 0.150986 0 0 -1.78475 0 0 0 0 0 0 0.01 
76 1 8 0.122768 -0.136526 0.159986 0 0 -1.78475 0 0 0 0 0 0 0.01 
77 1 8 0.122768 -0.136526 0.168986 0 0 -1.78475 0 0 0 0 0 0 0.01 
78 1 8 0.122768 -0.136526 0.177986 0 0 -1.78475 0 0 0 0 0 0 0.01 
79 1 8 0.122768 -0.136526 0.186986 0 0 -1.78475 0 0 0 0 0 0 0.01 
80 1 8 0.122768 -0.136526 0.195986 0 0 -1.78475 0 0 0 0 0 0 0.01 
81 1 9 -0.103348 0.0216352 0.246976 0 0 -1.78475 0 0 0 0 0 0 0.01 
82 1 9 -0.103348 0.0216352 0.255976 0 0 -1.78475 0 0 0 0 0 0 0.01 
83 1 9 -0.103348 0.0216352 0.264976 0 0 -1.78475 0 0 0 0 0 0 0.01 
84 1 9 -0.103348 0.0216352 0.273976 0 0 -1.78475 0 0 0 0 0 0 0.01 
85 1 9 -0.103348 0.0216352 0.282976 0 0 -1.78475 0 0 0 0 0 0 0.01 
86 1 9 -0.103348 0.0216352 0.291976 0 0 -1.78475 0 0 0 0 0 0 0.01 
87 1 9 -0.103348 0.0216352 0.300976 0 0 -1.78475 0 0 0 0 0 0 0.01 
88 1 9 -0.103348 0.0216352 0.309976 0 0 -1.78475 0 0 0 0 0 0 0.01 
89 1 9 -0.103348 0.0216352 0.318976 0 0 -1.78475 0 0 0 0 0 0 0.01 
90 1 9 -0.103348 0.0216352 0.327976 0 0 -1.78475 0 0 0 0 0 0 0.01 
91 1 10 0.0525879 0.204915 0.109468 0.0120944 -0.0238998 0.153263 0.0284252 -0.0560718 -0.35891 -2.55897 -1.2949 0.00199592 0.01 
92 1 10 0.0524713 0.205146 0.118464 0.000444645 -0.000878871 0.152522 0 0 0 -2.55897 -1.2949 0.00199592 0.01 
93 1 10 0.0523548 0.205377 0.12746 -0.0112051 0.0221421 0.151781 0 0 0 -2.55897 -1.2949 0.00199592 0.01 
94 1 10 0.0522383 0.205607 0.136457 -0.0228548 0.0451631 0.15104 0 0 0 -2.55897 -1.2949 0.00199592 0.01 
95 1 10 0.0521217 0.205838 0.145453 -0.0345046 0.0681841 0.150298 0 0 0 -2.55897 -1.2949 0.00199592 0.01 
96 1 10 0.0520052 0.206069 0.154449 -0.0461543 0.091205 0.149557 0 0 0 -2.55897 -1.2949 0.00199592 0.01 
97 1 10 0.0518887 0.206299 0.163446 -0.0578041 0.114226 0.148816 0 0 0 -2.55897 -1.2949 0.00199592 0.01 
98 1 10 0.0517721 0.20653 0.172442 -0.0694538 0.137247 0.148075 0 0 0 -2.55897 -1.2949 0.00199592 0.01 
99 1 10 0.0516556 0.206761 0.181438 -0.0811036 0.160268 0.147334 0 0 0 -2.55897 -1.2949 0.00199592 0.01 
100 1 10 0.0515391 0.206992 0.190434 -0.0927533 0.183289 0.146592 0 0 0 -2.55897 -1.2949 0.00199592 0.01 
101 1 11 -0.191384 -0.0894902 0.135756 0 0 -1.78475 0 0 0 0 0 0 0.01 
102 1 11 -0.191384 -0.0894902 0.144756 0 0 -1.78475 0 0 0 0 0 0 0.01 
103 1 11 -0.191384 -0.0894902 0.153756 0 0 -1.78475 0 0 0 0 0 0 0.01 
104 1 11 -0.191384 -0.0894902 0.162756 0 0 -1.78475 0 0 0 0 0 0 0.01 
105 1 11 -0.191384 -0.0894902 0.171756 0 0 -1.78475 0 0 0 0 0 0 0.01 
106 1 11 -0.191384 -0.0894902 0.180756 0 0 -1.78475 0 0 0 0 0 0 0.01 
107 1 11 -0.191384 -0.0894902 0.189756 0 0 -1.78475 0 0 0 0 0 0 0.01 
108 1 11 -0.191384 -0.0894902 0.198756 0 0 -1.78475 0 0 0 0 0 0 0.01 
109 1 11 -0.191384 -0.0894902 0.207756 0 0 -1.78475 0 0 0 0 0 0 0.01 
110 1 11 -0.191384 -0.0894902 0.216756 0 0 -1.78475 0 0 0 0 0 0 0.01 
111 1 12 0.0979497 0.0553494 0.111056 0.0259388 -0.0641795 -0.181723 1.48059 0.350359 4.02614 -1.02881 0.932535 2.70785 0.01 
112 1 12 0.0980924 0.0556156 0.120051 0.0336062 -0.0545389 -0.18213 0 0 0 -1.02881 0.932535 2.70785 0.01 
113 1 12 0.0982351 0.0558817 0.129046 0.0412736 -0.0448984 -0.182537 0 0 0 -1.02881 0.932535 2.70785 0.01 
114 1 12 0.0983778 0.0561478 0.138041 0.0489411 -0.0352578 -0.182944 0 0 0 -1.02881 0.932535 2.70785 0.01 
115 1 12 0.0985206 0.056414 0.147036 0.0566085 -0.0256173 -0.183351 0 0 0 -1.02881 0.932535 2.70785 0.01 
116 1 12 0.0986633 0.0566801 0.156031 0.0642759 -0.0159767 -0.183758 0 0 0 -1.02881 0.932535 2.70785 0.01 
117 1 12 0.098806 0.0569462 0.165025 0.0719434 -0.0063362 -0.184165 0 0 0 -1.02881 0.932535 2.70785 0.01 
118 1 12 0.0989487 0.0572124 0.17402 0.0796108 0.00330434 -0.184572 0 0 0 -1.02881 0.932535 2.70785 0.01 
119 1 12 0.0990914 0.0574785 0.183015 0.0872783 0.0129449 -0.184979 0 0 0 -1.02881 0.932535 2.70785 0.01 
120 1 12 0.0992341 0.0577447 0.19201 0.0949457 0.0225854 -0.185385 0.936303 0.151674 -0.422345 -1.02881 0.932535 2.70785 0.01 
121 1 13 -0.0168848 0.215837 0.220126 0 0 -1.78475 0 0 0 0 0 0 0.01 
122 1 13 -0.0168848 0.215837 0.229126 0 0 -1.78475 0 0 0 0 0 0 0.01 
123 1 13 -0.0168848 0.215837 0.238126 0 0 -1.78475 0 0 0 0 0 0 0.01 
124 1 13 -0.0168848 0.215837 0.247126 0 0 -1.78475 0 0 0 0 0 0 0.01 
125 1 13 -0.0168848 0.215837 0.256126 0 0 -1.78475 0 0 0 0 0 0 0.01 
126 1 13 -0.0168848 0.215837 0.265126 0 0 -1.78475 0 0 0 0 0 0 0.01 
127 1 13 -0.0168848 0.215837 0.274126 0 0 -1.78475 0 0 0 0 0 0 0.01 
128 1 13 -0.0168848 0.215837 0.283126 0 0 -1.78475 0 0 0 0 0 0 0.01 
129 1 13 -0.0168848 0.215837 0.292126 0 0 -1.78475 0 0 0 0 0 0 0.01 
130 1 13 -0.0168848 0.215837 0.301126 0 0 -1.78475 0 0 0 0 0 0 0.01 
131 1 14 -0.0494958 0.122462 0.0125907 -1.6214e-06 0.000119476 0.430878 0 0 0 -0.00386474 -5.24484e-05 -2.69338e-06 0.01 
132 1 14 -0.0494958 0.122462 0.0215907 -2.09343e-06 0.000154259 0.430878 0 0 0 -0.00386474 -5.24484e-05 -2.69338e-06 0.01 
133 1 14 -0.0494958 0.122462 0.0305907 -2.56547e-06 0.000189041 0.430878 0 0 0 -0.00386474 -5.24484e-05 -2.69338e-06 0.01 
134 1 14 -0.0494958 0.122463 0.0395907 -3.0375e-06 0.000223824 0.430878 0 0 0 -0.00386474 -5.24484e-05 -2.69338e-06 0.01 
135 1 14 -0.0494958 0.122463 0.0485907 -3.50954e-06 0.000258607 0.430878 0 0 0 -0.00386474 -5.24484e-05 -2.69338e-06 0.01 
136 1 14 -0.0494958 0.122463 0.0575907 -3.98157e-06 0.000293389 0.430878 0 0 0 -0.00386474 -5.24484e-05 -2.69338e-06 0.01 
137 1 14 -0.0494958 0.122464 0.0665907 -4.45361e-06 0.000328172 0.430878 0 0 0 -0.00386474 -5.24484e-05 -2.69338e-06 0.01 
138 1 14 -0.0494958 0.122464 0.0755907 -4.92564e-06 0.000362954 0.430878 0 0 0 -0.00386474 -5.24484e-05 -2.69338e-06 0.01 
139 1 14 -0.0494958 0.122465 0.0845907 -5.39768e-06 0.000397737 0.430878 0 0 0 -0.00386474 -5.24484e-05 -2.69338e-06 0.01 
140 1 14 -0.0494959 0.122465 0.0935907 -5.86971e-06 0.00043252 0.430878 0 0 0 -0.00386474 -5.24484e-05 -2.69338e-06 0.01 
141 1 15 -0.0104758 -0.0692281 0.162485 0 0 -1.78475 0 0 0 0 0 0 0.01 
142 1 15 -0.0104758 -0.0692281 0.171485 0 0 -1.78475 0 0 0 0 0 0 0.01 
143 1 15 -0.0104758 -0.0692281 0.180485 0 0 -1.78475 0 0 0 0 0 0 0.01 
144 1 15 -0.0104758 -0.0692281 0.189485 0 0 -1.78475 0 0 0 0 0 0 0.01 
145 1 15 -0.0104758 -0.0692281 0.198485 0 0 -1.78475 0 0 0 0 0 0 0.01 
146 1 15 -0.0104758 -0.0692281 0.207485 0 0 -1.78475 0 0 0 0 0 0 0.01 
147 1 15 -0.0104758 -0.0692281 0.216485 0 0 -1.78475 0 0 0 0 0 0 0.01 
148 1 15 -0.0104758 -0.0692281 0.225485 0 0 -1.78475 0 0 0 0 0 0 0.01 
149 1 15 -0.0104758 -0.0692281 0.234485 0 0 -1.78475 0 0 0 0 0 0 0.01 
150 1 15 -0.0104758 -0.0692281 0.243485 0 0 -1.78475 0 0 0 0 0 0 0.01 
151 1 16 -0.0401604 0.177624 0.097122 0.398248 0.571157 -1.15139 -2.82248 -3.80193 -1.46751 8.31094 -5.61568 -2.04753 0.01 
152 1 16 -0.0402311 0.177511 0.106121 0.347482 0.496512 -1.15273 0 0 0 8.31094 -5.61568 -2.04753 0.01 
153 1 16 -0.0403019 0.177399 0.11512 0.296716 0.421866 -1.15406 0 0 0 8.31094 -5.61568 -2.04753 0.01 
154 1 16 -0.0403726 0.177286 0.124119 0.24595 0.347221 -1.15539 0 0 0 8.31094 -5.61568 -2.04753 0.01 
155 1 16 -0.0404433 0.177174 0.133118 0.195184 0.272575 -1.15672 0 0 0 8.31094 -5.61568 -2.04753 0.01 
156 1 16 -0.0405141 0.177061 0.142117 0.144418 0.19793 -1.15805 0 0 0 8.31094 -5.61568 -2.04753 0.01 
157 1 16 -0.0405848 0.176949 0.151116 0.093652 0.123284 -1.15939 0 0 0 8.31094 -5.61568 -2.04753 0.01 
158 1 16 -0.0406556 0.176836 0.160115 0.042886 0.0486387 -1.16072 0 0 0 8.31094 -5.61568 -2.04753 0.01 
159 1 16 -0.0407263 0.176724 0.169114 -0.00787993 -0.0260068 -1.16205 0 0 0 8.31094 -5.61568 -2.04753 0.01 
160 1 16 -0.040797 0.176611 0.178113 -0.0586459 -0.100652 -1.16338 0 0 0 8.31094 -5.61568 -2.04753 0.01 
161 1 17 0.0731831 0.0923846 0.0113119 -0.0395483 -0.00246823 0.291287 0 0 0 -0.0457897 0.660849 -0.00739637 0.01 
162 1 17 0.073184 0.0923849 0.0203119 -0.0336007 -0.00205613 0.291286 0 0 0 -0.0457897 0.660849 -0.00739637 0.01 
163 1 17 0.0731849 0.0923853 0.0293119 -0.027653 -0.00164403 0.291286 0 0 0 -0.0457897 0.660849 -0.00739637 0.01 
164 1 17 0.0731858 0.0923856 0.0383119 -0.0217054 -0.00123193 0.291285 0 0 0 -0.0457897 0.660849 -0.00739637 0.01 
165 1 17 0.0731868 0.092386 0.0473119 -0.0157577 -0.000819832 0.291285 0 0 0 -0.0457897 0.660849 -0.00739637 0.01 
166 1 17 0.0731877 0.0923863 0.0563119 -0.00981009 -0.000407732 0.291284 0 0 0 -0.0457897 0.660849 -0.00739637 0.01 
167 1 17 0.0731886 0.0923866 0.0653119 -0.00386245 4.36803e-06 0.291283 0 0 0 -0.0457897 0.660849 -0.00739637 0.01 
168 1 17 0.0731896 0.092387 0.0743119 0.0020852 0.000416468 0.291283 0 0 0 -0.0457897 0.660849 -0.00739637 0.01 
169 1 17 0.0731905 0.0923873 0.0833119 0.00803284 0.000828568 0.291282 0 0 0 -0.0457897 0.660849 -0.00739637 0.01 
170 1 17 0.0731914 0.0923876 0.0923119 0.0139805 0.00124067 0.291281 -3.00624 -0.209213 -43.4267 -0.0457897 0.660849 -0.00739637 0.01 
171 1 18 -0.238355 -0.0349229 0.200653 -0.0278147 -0.403734 -0.988292 0.936654 2.30937 0.291478 -5.50615 -0.365714 -6.24883 0.01 
172 1 18 -0.238294 -0.0348028 0.209652 -0.030355 -0.354565 -0.988931 0 0 0 -5.50615 -0.365714 -6.24883 0.01 
173 1 18 -0.238233 -0.0346826 0.218651 -0.0328952 -0.305396 -0.98957 0 0 0 -5.50615 -0.365714 -6.24883 0.01 
174 1 18 -0.238172 -0.0345625 0.22765 -0.0354355 -0.256227 -0.990209 0 0 0 -5.50615 -0.365714 -6.24883 0.01 
175 1 18 -0.238111 -0.0344423 0.236649 -0.0379757 -0.207058 -0.990849 0 0 0 -5.50615 -0.365714 -6.24883 0.01 
176 1 18 -0.23805 -0.0343222 0.245648 -0.040516 -0.157889 -0.991488 0 0 0 -5.50615 -0.365714 -6.24883 0.01 
177 1 18 -0.237989 -0.034202 0.254647 -0.0430562 -0.10872 -0.992127 0 0 0 -5.50615 -0.365714 -6.24883 0.01 
178 1 18 -0.237928 -0.0340819 0.263646 -0.0455965 -0.0595515 -0.992767 0 0 0 -5.50615 -0.365714 -6.24883 0.01 
179 1 18 -0.237867 -0.0339617 0.272645 -0.0481367 -0.0103826 -0.993406 0 0 0 -5.50615 -0.365714 -6.24883 0.01 
180 1 18 -0.237806 -0.0338416 0.281644 -0.050677 0.0387864 -0.994045 0 0 0 -5.50615 -0.365714 -6.24883 0.01 
181 1 19 0.00334189 0.165527 0.175878 0 0 -1.78475 0 0 0 0 0 0 0.01 
182 1 19 0.00334189 0.165527 0.184878 0 0 -1.78475 0 0 0 0 0 0 0.01 
183 1 19 0.00334189 0.165527 0.193878 0 0 -1.78475 0 0 0 0 0 0 0.01 
184 1 19 0.00334189 0.165527 0.202878 0 0 -1.78475 0 0 0 0 0 0 0.01 
185 1 19 0.00334189 0.165527 0.211878 0 0 -1.78475 0 0 0 0 0 0 0.01 
186 1 19 0.00334189 0.165527 0.220878 0 0 -1.78475 0 0 0 0 0 0 0.01 
187 1 19 0.00334189 0.165527 0.229878 0 0 -1.78475 0 0 0 0 0 0 0.01 
188 1 19 0.00334189 0.165527 0.238878 0 0 -1.78475 0 0 0 0 0 0 0.01 
189 1 19 0.00334189 0.165527 0.247878 0 0 -1.78475 0 0 0 0 0 0 0.01 
190 1 19 0.00334189 0.165527 0.256878 0 0 -1.78475 0 0 0 0 0 0 0.01 
191 1 20 -0.00721147 0.187211 0.00922802 0.0050429 0.00496201 0.41947 0.148583 0.145332 4.42406 -1.04236 1.07589 0.00385855 0.01 
192 1 20 -0.00722419 0.187199 0.018228 0.014726 0.0143432 0.419496 0 0 0 -1.04236 1.07589 0.00385855 0.01 
193 1 20 -0.00723691 0.187188 0.027228 0.024409 0.0237243 0.419522 0 0 0 -1.04236 1.07589 0.00385855 0.01 
194 1 20 -0.00724963 0.187176 0.036228 0.0340921 0.0331054 0.419548 0 0 0 -1.04236 1.07589 0.00385855 0.01 
195 1 20 -0.00726235 0.187164 0.045228 0.0437751 0.0424866 0.419574 0 0 0 -1.04236 1.07589 0.00385855 0.01 
196 1 20 -0.00727506 0.187152 0.0542279 0.0534582 0.0518677 0.4196 0 0 0 -1.04236 1.07589 0.00385855 0.01 
197 1 20 -0.00728778 0.18714 0.0632279 0.0631413 0.0612489 0.419626 0 0 0 -1.04236 1.07589 0.00385855 0.01 
198 1 20 -0.0073005 0.187128 0.0722279 0.0728243 0.07063 0.419652 0 0 0 -1.04236 1.07589 0.00385855 0.01 
199 1 20 -0.00731322 0.187117 0.0812279 0.0825074 0.0800112 0.419678 0 0 0 -1.04236 1.07589 0.00385855 0.01 
200 1 20 -0.00732594 0.187105 0.0902279 0.0921904 0.0893923 0.419704 0 0 0 -1.04236 1.07589 0.00385855 0.01 
201 1 21 0.0191754 0.00373265 0.00972918 -0.00464906 0.0207568 -0.0180348 -0.215638 0.122459 4.16704 -1.09845 -1.13957 -2.91807 0.01 
202 1 21 0.0188962 0.00398006 0.0187214 -0.0141744 0.031449 -0.0186247 0 0 0 -1.09845 -1.13957 -2.91807 0.01 
203 1 21 0.018617 0.00422748 0.0277137 -0.0236998 0.0421413 -0.0192147 0 0 0 -1.09845 -1.13957 -2.91807 0.01 
204 1 21 0.0183378 0.00447489 0.036706 -0.0332252 0.0528336 -0.0198046 0 0 0 -1.09845 -1.13957 -2.91807 0.01 
205 1 21 0.0180586 0.00472231 0.0456982 -0.0427506 0.0635259 -0.0203945 0 0 0 -1.09845 -1.13957 -2.91807 0.01 
206 1 21 0.0177794 0.00496972 0.0546905 -0.0522759 0.0742181 -0.0209844 0 0 0 -1.09845 -1.13957 -2.91807 0.01 
207 1 21 0.0175003 0.00521714 0.0636828 -0.0618013 0.0849104 -0.0215744 0 0 0 -1.09845 -1.13957 -2.91807 0.01 
208 1 21 0.0172211 0.00546455 0.072675 -0.0713267 0.0956027 -0.0221643 0 0 0 -1.09845 -1.13957 -2.91807 0.01 
209 1 21 0.0169419 0.00571196 0.0816673 -0.0808521 0.106295 -0.0227542 0.148776 -0.0657339 -2.4307 -1.09845 -1.13957 -2.91807 0.01 
210 1 21 0.0166627 0.00595938 0.0906596 -0.0903774 0.116987 -0.0233441 0.360771 0.0342795 -4.28683 -1.09845 -1.13957 -2.91807 0.01 
211 1 22 0.00289755 0.197355 0.135885 0 0 -1.78475 0 0 0 0 0 0 0.01 
212 1 22 0.00289755 0.197355 0.144885 0 0 -1.78475 0 0 0 0 0 0 0.01 
213 1 22 0.00289755 0.197355 0.153885 0 0 -1.78475 0 0 0 0 0 0 0.01 
214 1 22 0.00289755 0.197355 0.162885 0 0 -1.78475 0 0 0 0 0 0 0.01 
215 1 22 0.00289755 0.197355 0.171885 0 0 -1.78475 0 0 0 0 0 0 0.01 
216 1 22 0.00289755 0.197355 0.180885 0 0 -1.78475 0 0 0 0 0 0 0.01 
217 1 22 0.00289755 0.197355 0.189885 0 0 -1.78475 0 0 0 0 0 0 0.01 
218 1 22 0.00289755 0.197355 0.198885 0 0 -1.78475 0 0 0 0 0 0 0.01 
219 1 22 0.00289755 0.197355 0.207885 0 0 -1.78475 0 0 0 0 0 0 0.01 
220 1 22 0.00289755 0.197355 0.216885 0 0 -1.78475 0 0 0 0 0 0 0.01 
221 1 23 0.214349 0.0539113 0.225417 0 0 -1.78475 0 0 0 0 0 0 0.01 
222 1 23 0.214349 0.0539113 0.234417 0 0 -1.78475 0 0 0 0 0 0 0.01 
223 1 23 0.214349 0.0539113 0.243417 0 0 -1.78475 0 0 0 0 0 0 0.01 
224 1 23 0.214349 0.0539113 0.252417 0 0 -1.78475 0 0 0 0 0 0 0.01 
225 1 23 0.214349 0.0539113 0.261417 0 0 -1.78475 0 0 0 0 0 0 0.01 
226 1 23 0.214349 0.0539113 0.270417 0 0 -1.78475 0 0 0 0 0 0 0.01 
227 1 23 0.214349 0.0539113 0.279417 0 0 -1.78475 0 0 0 0 0 0 0.01 
228 1 23 0.214349 0.0539113 0.288417 0 0 -1.78475 0 0 0 0 0 0 0.01 
229 1 23 0.214349 0.0539113 0.297417 0 0 -1.78475 0 0 0 0 0 0 0.01 
230 1 23 0.214349 0.0539113 0.306417 0 0 -1.78475 0 0 0 0 0 0 0.01 
231 1 24 0.157658 0.0255722 0.00896771 -0.0159057 0.00444618 -0.558571 -2.05473 -1.06709 47.1815 2.91898 1.96995 -2.93234 0.01 
232 1 24 0.157605 0.0252758 0.0179627 0.000944898 -0.0216563 -0.559333 0 0 0 2.91898 1.96995 -2.93234 0.01 
233 1 24 0.157553 0.0249795 0.0269576 0.0177955 -0.0477589 -0.560095 0 0 0 2.91898 1.96995 -2.93234 0.01 
234 1 24 0.157501 0.0246831 0.0359526 0.0346462 -0.0738614 -0.560856 0 0 0 2.91898 1.96995 -2.93234 0.01 
235 1 24 0.157448 0.0243868 0.0449476 0.0514968 -0.0999639 -0.561618 0 0 0 2.91898 1.96995 -2.93234 0.01 
236 1 24 0.157396 0.0240904 0.0539425 0.0683475 -0.126066 -0.56238 0 0 0 2.91898 1.96995 -2.93234 0.01 
237 1 24 0.157344 0.0237941 0.0629375 0.0851981 -0.152169 -0.563142 0 0 0 2.91898 1.96995 -2.93234 0.01 
238 1 24 0.157291 0.0234977 0.0719325 0.102049 -0.178271 -0.563904 0 0 0 2.91898 1.96995 -2.93234 0.01 
239 1 24 0.157239 0.0232013 0.0809274 0.118899 -0.204374 -0.564666 0 0 0 2.91898 1.96995 -2.93234 0.01 
240 1 24 0.157186 0.022905 0.0899224 0.13575 -0.230477 -0.565428 0.378366 0.043064 -4.76998 2.91898 1.96995 -2.93234 0.01 
241 1 25 0.134963 -0.174125 0.163241 0 0 -1.78475 0 0 0 0 0 0 0.01 
242 1 25 0.134963 -0.174125 0.172241 0 0 -1.78475 0 0 0 0 0 0 0.01 
243 1 25 0.134963 -0.174125 0.181241 0 0 -1.78475 0 0 0 0 0 0 0.01 
244 1 25 0.134963 -0.174125 0.190241 0 0 -1.78475 0 0 0 0 0 0 0.01 
245 1 25 0.134963 -0.174125 0.199241 0 0 -1.78475 0 0 0 0 0 0 0.01 
246 1 25 0.134963 -0.174125 0.208241 0 0 -1.78475 0 0 0 0 0 0 0.01 
247 1 25 0.134963 -0.174125 0.217241 0 0 -1.78475 0 0 0 0 0 0 0.01 
248 1 25 0.134963 -0.174125 0.226241 0 0 -1.78475 0 0 0 0 0 0 0.01 
249 1 25 0.134963 -0.174125 0.235241 0 0 -1.78475 0 0 0 0 0 0 0.01 
250 1 25 0.134963 -0.174125 0.244241 0 0 -1.78475 0 0 0 0 0 0 0.01 
251 1 26 -0.00920263 -0.17024 0.0369136 0 0 -1.78475 0 0 0 0 0 0 0.01 
252 1 26 -0.00920263 -0.17024 0.0459136 0 0 -1.78475 0 0 0 0 0 0 0.01 
253 1 26 -0.00920263 -0.17024 0.0549136 0 0 -1.78475 0 0 0 0 0 0 0.01 
254 1 26 -0.00920263 -0.17024 0.0639136 0 0 -1.78475 0 0 0 0 0 0 0.01 
255 1 26 -0.00920263 -0.17024 0.0729136 0 0 -1.78475 0 0 0 0 0 0 0.01 
256 1 26 -0.00920263 -0.17024 0.0819136 0 0 -1.78475 0 0 0 0 0 0 0.01 
257 1 26 -0.00920263 -0.17024 0.0909136 0 0 -1.78475 0 0 0 0 0 0 0.01 
258 1 26 -0.00920263 -0.17024 0.0999136 0 0 -1.78475 0 0 0 0 0 0 0.01 
259 1 26 -0.00920263 -0.17024 0.108914 0 0 -1.78475 0 0 0 0 0 0 0.01 
260 1 26 -0.00920263 -0.17024 0.117914 0 0 -1.78475 0 0 0 0 0 0 0.01 
261 1 27 -0.145272 0.151137 0.163721 0.039171 0.0427346 -1.49883 0 0 0 0.860208 -0.387848 -0.97624 0.01 
262 1 27 -0.145305 0.151039 0.17272 0.0355856 0.0350259 -1.49893 0 0 0 0.860208 -0.387848 -0.97624 0.01 
263 1 27 -0.145339 0.150942 0.181719 0.0320001 0.0273172 -1.49903 0 0 0 0.860208 -0.387848 -0.97624 0.01 
264 1 27 -0.145372 0.150844 0.190719 0.0284146 0.0196086 -1.49912 0 0 0 0.860208 -0.387848 -0.97624 0.01 
265 1 27 -0.145406 0.150747 0.199718 0.0248291 0.0118999 -1.49922 0 0 0 0.860208 -0.387848 -0.97624 0.01 
266 1 27 -0.145439 0.15065 0.208718 0.0212436 0.00419122 -1.49932 0 0 0 0.860208 -0.387848 -0.97624 0.01 
267 1 27 -0.145473 0.150552 0.217717 0.0176582 -0.00351746 -1.49941 0 0 0 0.860208 -0.387848 -0.97624 0.01 
268 1 27 -0.145506 0.150455 0.226716 0.0140727 -0.0112261 -1.49951 0 0 0 0.860208 -0.387848 -0.97624 0.01 
269 1 27 -0.14554 0.150358 0.235716 0.0104872 -0.0189348 -1.49961 0 0 0 0.860208 -0.387848 -0.97624 0.01 
270 1 27 -0.145573 0.15026 0.244715 0.00690172 -0.0266435 -1.4997 0 0 0 0.860208 -0.387848 -0.97624 0.01 
271 1 28 0.0144186 -0.169101 0.120994 0 0 -1.78475 0 0 0 0 0 0 0.01 
272 1 28 0.0144186 -0.169101 0.129994 0 0 -1.78475 0 0 0 0 0 0 0.01 
273 1 28 0.0144186 -0.169101 0.138994 0 0 -1.78475 0 0 0 0 0 0 0.01 
274 1 28 0.0144186 -0.169101 0.147994 0 0 -1.78475 0 0 0 0 0 0 0.01 
275 1 28 0.0144186 -0.169101 0.156994 0 0 -1.78475 0 0 0 0 0 0 0.01 
276 1 28 0.0144186 -0.169101 0.165994 0 0 -1.78475 0 0 0 0 0 0 0.01 
277 1 28 0.0144186 -0.169101 0.174994 0 0 -1.78475 0 0 0 0 0 0 0.01 
278 1 28 0.0144186 -0.169101 0.183994 0 0 -1.78475 0 0 0 0 0 0 0.01 
279 1 28 0.0144186 -0.169101 0.192994 0 0 -1.78475 0 0 0 0 0 0 0.01 
280 1 28 0.0144186 -0.169101 0.201994 0 0 -1.78475 0 0 0 0 0 0 0.01 
281 1 29 0.0770886 0.126329 0.015112 -1.55083e-06 0.000114276 0.341252 0 0 0 -0.00370888 -5.03334e-05 -2.58476e-06 0.01 
282 1 29 0.0770886 0.126329 0.024112 -2.00383e-06 0.000147656 0.341252 0 0 0 -0.00370888 -5.03334e-05 -2.58476e-06 0.01 
283 1 29 0.0770886 0.12633 0.033112 -2.45683e-06 0.000181036 0.341252 0 0 0 -0.00370888 -5.03334e-05 -2.58476e-06 0.01 
284 1 29 0.0770885 0.12633 0.042112 -2.90983e-06 0.000214416 0.341252 0 0 0 -0.00370888 -5.03334e-05 -2.58476e-06 0.01 
285 1 29 0.0770885 0.126331 0.051112 -3.36283e-06 0.000247796 0.341252 0 0 0 -0.00370888 -5.03334e-05 -2.58476e-06 0.01 
286 1 29 0.0770885 0.126332 0.060112 -3.81583e-06 0.000281176 0.341252 0 0 0 -0.00370888 -5.03334e-05 -2.58476e-06 0.01 
287 1 29 0.0770885 0.126332 0.069112 -4.26882e-06 0.000314556 0.341252 0 0 0 -0.00370888 -5.03334e-05 -2.58476e-06 0.01 
288 1 29 0.0770885 0.126333 0.078112 -4.72182e-06 0.000347936 0.341252 0 0 0 -0.00370888 -5.03334e-05 -2.58476e-06 0.01 
289 1 29 0.0770885 0.126333 0.087112 -5.17482e-06 0.000381316 0.341252 0 0 0 -0.00370888 -5.03334e-05 -2.58476e-06 0.01 
290 1 29 0.0770885 0.126334 0.096112 -5.62782e-06 0.000414696 0.341252 0 0 0 -0.00370888 -5.03334e-05 -2.58476e-06 0.01 
291 1 30 -0.0622987 -0.0566083 0.223074 0 0 -1.78475 0 0 0 0 0 0 0.01 
292 1 30 -0.0622987 -0.0566083 0.232074 0 0 -1.78475 0 0 0 0 0 0 0.01 
293 1 30 -0.0622987 -0.0566083 0.241074 0 0 -1.78475 0 0 0 0 0 0 0.01 
294 1 30 -0.0622987 -0.0566083 0.250074 0 0 -1.78475 0 0 0 0 0 0 0.01 
295 1 30 -0.0622987 -0.0566083 0.259074 0 0 -1.78475 0 0 0 0 0 0 0.01 
296 1 30 -0.0622987 -0.0566083 0.268074 0 0 -1.78475 0 0 0 0 0 0 0.01 
297 1 30 -0.0622987 -0.0566083 0.277074 0 0 -1.78475 0 0 0 0 0 0 0.01 
298 1 30 -0.0622987 -0.0566083 0.286074 0 0 -1.78475 0 0 0 0 0 0 0.01 
299 1 30 -0.0622987 -0.0566083 0.295074 0 0 -1.78475 0 0 0 0 0 0 0.01 
300 1 30 -0.0622987 -0.0566083 0.304074 0 0 -1.78475 0 0 0 0 0 0 0.01 
301 1 31 0.0115467 0.0646068 0.0105706 0.0208058 0.0198246 0.118806 0 0 0 -1.87195 1.96563 0.0117736 0.01 
302 1 31 0.0118176 0.0648648 0.0195628 0.0384781 0.0366607 0.117791 0 0 0 -1.87195 1.96563 0.0117736 0.01 
303 1 31 0.0120885 0.0651228 0.0285551 0.0561505 0.0534969 0.116775 0 0 0 -1.87195 1.96563 0.0117736 0.01 
304 1 31 0.0123594 0.0653808 0.0375473 0.0738228 0.070333 0.11576 0 0 0 -1.87195 1.96563 0.0117736 0.01 
305 1 31 0.0126303 0.0656388 0.0465395 0.0914952 0.0871692 0.114744 0 0 0 -1.87195 1.96563 0.0117736 0.01 
306 1 31 0.0129012 0.0658968 0.0555317 0.109168 0.104005 0.113729 0 0 0 -1.87195 1.96563 0.0117736 0.01 
307 1 31 0.0131721 0.0661548 0.064524 0.12684 0.120841 0.112714 0 0 0 -1.87195 1.96563 0.0117736 0.01 
308 1 31 0.013443 0.0664128 0.0735162 0.144512 0.137678 0.111698 0 0 0 -1.87195 1.96563 0.0117736 0.01 
309 1 31 0.0137139 0.0666708 0.0825084 0.162185 0.154514 0.110683 0 0 0 -1.87195 1.96563 0.0117736 0.01 
310 1 31 0.0139848 0.0669288 0.0915006 0.179857 0.17135 0.109667 0 0 0 -1.87195 1.96563 0.0117736 0.01 
311 1 32 0.0320384 -0.0315173 0.0463197 0 0 -1.78475 0 0 0 0 0 0 0.01 
312 1 32 0.0320384 -0.0315173 0.0553197 0 0 -1.78475 0 0 0 0 0 0 0.01 
313 1 32 0.0320384 -0.0315173 0.0643197 0 0 -1.78475 0 0 0 0 0 0 0.01 
314 1 32 0.0320384 -0.0315173 0.0733197 0 0 -1.78475 0 0 0 0 0 0 0.01 
315 1 32 0.0320384 -0.0315173 0.0823197 0 0 -1.78475 0 0 0 0 0 0 0.01 
316 1 32 0.0320384 -0.0315173 0.0913197 0 0 -1.78475 0 0 0 0 0 0 0.01 
317 1 32 0.0320384 -0.0315173 0.10032 0 0 -1.78475 0 0 0 0 0 0 0.01 
318 1 32 0.0320384 -0.0315173 0.10932 0 0 -1.78475 0 0 0 0 0 0 0.01 
319 1 32 0.0320384 -0.0315173 0.11832 0 0 -1.78475 0 0 0 0 0 0 0.01 
320 1 32 0.0320384 -0.0315173 0.12732 0 0 -1.78475 0 0 0 0 0 0 0.01 
321 1 33 -0.164367 -0.0225208 0.168576 0 0 -1.78475 0 0 0 0 0 0 0.01 
322 1 33 -0.164367 -0.0225208 0.177576 0 0 -1.78475 0 0 0 0 0 0 0.01 
323 1 33 -0.164367 -0.0225208 0.186576 0 0 -1.78475 0 0 0 0 0 0 0.01 
324 1 33 -0.164367 -0.0225208 0.195576 0 0 -1.78475 0 0 0 0 0 0 0.01 
325 1 33 -0.164367 -0.0225208 0.204576 0 0 -1.78475 0 0 0 0 0 0 0.01 
326 1 33 -0.164367 -0.0225208 0.213576 0 0 -1.78475 0 0 0 0 0 0 0.01 
327 1 33 -0.164367 -0.0225208 0.222576 0 0 -1.78475 0 0 0 0 0 0 0.01 
328 1 33 -0.164367 -0.0225208 0.231576 0 0 -1.78475 0 0 0 0 0 0 0.01 
329 1 33 -0.164367 -0.0225208 0.240576 0 0 -1.78475 0 0 0 0 0 0 0.01 
330 1 33 -0.164367 -0.0225208 0.249576 0 0 -1.78475 0 0 0 0 0 0 0.01 
331 1 34 -0.0753724 0.213735 0.01918 0 0 -1.78475 0 0 0 0 0 0 0.01 
332 1 34 -0.0753724 0.213735 0.02818 0 0 -1.78475 0 0 0 0 0 0 0.01 
333 1 34 -0.0753724 0.213735 0.03718 0 0 -1.78475 0 0 0 0 0 0 0.01 
334 1 34 -0.0753724 0.213735 0.04618 0 0 -1.78475 0 0 0 0 0 0 0.01 
335 1 34 -0.0753724 0.213735 0.05518 0 0 -1.78475 0 0 0 0 0 0 0.01 
336 1 34 -0.0753724 0.213735 0.06418 0 0 -1.78475 0 0 0 0 0 0 0.01 
337 1 34 -0.0753724 0.213735 0.07318 0 0 -1.78475 0 0 0 0 0 0 0.01 