ITEM: TIMESTEP
1000
ITEM: NUMBER OF ATOMS
6300
ITEM: BOX BOUNDS mm mm mm
-0.3 0.3
-0.3 0.3
0 0.5
ITEM: ATOMS id type mol x y z vx vy vz fx fy fz omegax omegay omegaz radius 
1 1 1 -0.115317 -0.129414 0.233704 0 0 -1.09805 0 0 0 0 0 0 0.01 
2 1 1 -0.115317 -0.129414 0.242704 0 0 -1.09805 0 0 0 0 0 0 0.01 
3 1 1 -0.115317 -0.129414 0.251704 0 0 -1.09805 0 0 0 0 0 0 0.01 
4 1 1 -0.115317 -0.129414 0.260704 0 0 -1.09805 0 0 0 0 0 0 0.01 
5 1 1 -0.115317 -0.129414 0.269704 0 0 -1.09805 0 0 0 0 0 0 0.01 
6 1 1 -0.115317 -0.129414 0.278704 0 0 -1.09805 0 0 0 0 0 0 0.01 
7 1 1 -0.115317 -0.129414 0.287704 0 0 -1.09805 0 0 0 0 0 0 0.01 
8 1 1 -0.115317 -0.129414 0.296704 0 0 -1.09805 0 0 0 0 0 0 0.01 
9 1 1 -0.115317 -0.129414 0.305704 0 0 -1.09805 0 0 0 0 0 0 0.01 
10 1 1 -0.115317 -0.129414 0.314704 0 0 -1.09805 0 0 0 0 0 0 0.01 
11 1 2 -0.0460582 -0.101391 0.223244 0 0 -1.09805 0 0 0 0 0 0 0.01 
12 1 2 -0.0460582 -0.101391 0.232244 0 0 -1.09805 0 0 0 0 0 0 0.01 
13 1 2 -0.0460582 -0.101391 0.241244 0 0 -1.09805 0 0 0 0 0 0 0.01 
14 1 2 -0.0460582 -0.101391 0.250244 0 0 -1.09805 0 0 0 0 0 0 0.01 
15 1 2 -0.0460582 -0.101391 0.259244 0 0 -1.09805 0 0 0 0 0 0 0.01 
16 1 2 -0.0460582 -0.101391 0.268244 0 0 -1.09805 0 0 0 0 0 0 0.01 
17 1 2 -0.0460582 -0.101391 0.277244 0 0 -1.09805 0 0 0 0 0 0 0.01 
18 1 2 -0.0460582 -0.101391 0.286244 0 0 -1.09805 0 0 0 0 0 0 0.01 
19 1 2 -0.0460582 -0.101391 0.295244 0 0 -1.09805 0 0 0 0 0 0 0.01 
20 1 2 -0.0460582 -0.101391 0.304244 0 0 -1.09805 0 0 0 0 0 0 0.01 
21 1 3 -0.0433468 -0.0313624 0.209302 0 0 -1.09805 0 0 0 0 0 0 0.01 
22 1 3 -0.0433468 -0.0313624 0.218302 0 0 -1.09805 0 0 0 0 0 0 0.01 
23 1 3 -0.0433468 -0.0313624 0.227302 0 0 -1.09805 0 0 0 0 0 0 0.01 
24 1 3 -0.0433468 -0.0313624 0.236302 0 0 -1.09805 0 0 0 0 0 0 0.01 
25 1 3 -0.0433468 -0.0313624 0.245302 0 0 -1.09805 0 0 0 0 0 0 0.01 
26 1 3 -0.0433468 -0.0313624 0.254302 0 0 -1.09805 0 0 0 0 0 0 0.01 
27 1 3 -0.0433468 -0.0313624 0.263302 0 0 -1.09805 0 0 0 0 0 0 0.01 
28 1 3 -0.0433468 -0.0313624 0.272302 0 0 -1.09805 0 0 0 0 0 0 0.01 
29 1 3 -0.0433468 -0.0313624 0.281302 0 0 -1.09805 0 0 0 0 0 0 0.01 
30 1 3 -0.0433468 -0.0313624 0.290302 0 0 -1.09805 0 0 0 0 0 0 0.01 
31 1 4 -0.0929903 0.110329 0.150064 0 0 -1.09805 0 0 0 0 0 0 0.01 
32 1 4 -0.0929903 0.110329 0.159064 0 0 -1.09805 0 0 0 0 0 0 0.01 
33 1 4 -0.0929903 0.110329 0.168064 0 0 -1.09805 0 0 0 0 0 0 0.01 
34 1 4 -0.0929903 0.110329 0.177064 0 0 -1.09805 0 0 0 0 0 0 0.01 
35 1 4 -0.0929903 0.110329 0.186064 0 0 -1.09805 0 0 0 0 0 0 0.01 
36 1 4 -0.0929903 0.110329 0.195064 0 0 -1.09805 0 0 0 0 0 0 0.01 
37 1 4 -0.0929903 0.110329 0.204064 0 0 -1.09805 0 0 0 0 0 0 0.01 
38 1 4 -0.0929903 0.110329 0.213064 0 0 -1.09805 0 0 0 0 0 0 0.01 
39 1 4 -0.0929903 0.110329 0.222064 0 0 -1.09805 0 0 0 0 0 0 0.01 
40 1 4 -0.0929903 0.110329 0.231064 0 0 -1.09805 0 0 0 0 0 0 0.01 
41 1 5 0.0772217 -0.137096 0.167935 0 0 -1.09805 0 0 0 0 0 0 0.01 
42 1 5 0.0772217 -0.137096 0.176935 0 0 -1.09805 0 0 0 0 0 0 0.01 
43 1 5 0.0772217 -0.137096 0.185935 0 0 -1.09805 0 0 0 0 0 0 0.01 
44 1 5 0.0772217 -0.137096 0.194935 0 0 -1.09805 0 0 0 0 0 0 0.01 
45 1 5 0.0772217 -0.137096 0.203935 0 0 -1.09805 0 0 0 0 0 0 0.01 
46 1 5 0.0772217 -0.137096 0.212935 0 0 -1.09805 0 0 0 0 0 0 0.01 
47 1 5 0.0772217 -0.137096 0.221935 0 0 -1.09805 0 0 0 0 0 0 0.01 
48 1 5 0.0772217 -0.137096 0.230935 0 0 -1.09805 0 0 0 0 0 0 0.01 
49 1 5 0.0772217 -0.137096 0.239935 0 0 -1.09805 0 0 0 0 0 0 0.01 
50 1 5 0.0772217 -0.137096 0.248935 0 0 -1.09805 0 0 0 0 0 0 0.01 
51 1 6 0.170849 -0.044483 0.198505 0 0 -1.09805 0 0 0 0 0 0 0.01 
52 1 6 0.170849 -0.044483 0.207505 0 0 -1.09805 0 0 0 0 0 0 0.01 
53 1 6 0.170849 -0.044483 0.216505 0 0 -1.09805 0 0 0 0 0 0 0.01 
54 1 6 0.170849 -0.044483 0.225505 0 0 -1.09805 0 0 0 0 0 0 0.01 
55 1 6 0.170849 -0.044483 0.234505 0 0 -1.09805 0 0 0 0 0 0 0.01 
56 1 6 0.170849 -0.044483 0.243505 0 0 -1.09805 0 0 0 0 0 0 0.01 
57 1 6 0.170849 -0.044483 0.252505 0 0 -1.09805 0 0 0 0 0 0 0.01 
58 1 6 0.170849 -0.044483 0.261505 0 0 -1.09805 0 0 0 0 0 0 0.01 
59 1 6 0.170849 -0.044483 0.270505 0 0 -1.09805 0 0 0 0 0 0 0.01 
60 1 6 0.170849 -0.044483 0.279505 0 0 -1.09805 0 0 0 0 0 0 0.01 
61 1 7 -0.0369062 0.215855 0.201027 0 0 -1.09805 0 0 0 0 0 0 0.01 
62 1 7 -0.0369062 0.215855 0.210027 0 0 -1.09805 0 0 0 0 0 0 0.01 
63 1 7 -0.0369062 0.215855 0.219027 0 0 -1.09805 0 0 0 0 0 0 0.01 
64 1 7 -0.0369062 0.215855 0.228027 0 0 -1.09805 0 0 0 0 0 0 0.01 
65 1 7 -0.0369062 0.215855 0.237027 0 0 -1.09805 0 0 0 0 0 0 0.01 
66 1 7 -0.0369062 0.215855 0.246027 0 0 -1.09805 0 0 0 0 0 0 0.01 
67 1 7 -0.0369062 0.215855 0.255027 0 0 -1.09805 0 0 0 0 0 0 0.01 
68 1 7 -0.0369062 0.215855 0.264027 0 0 -1.09805 0 0 0 0 0 0 0.01 
69 1 7 -0.0369062 0.215855 0.273027 0 0 -1.09805 0 0 0 0 0 0 0.01 
70 1 7 -0.0369062 0.215855 0.282027 0 0 -1.09805 0 0 0 0 0 0 0.01 
71 1 8 0.122768 -0.136526 0.215884 0 0 -1.09805 0 0 0 0 0 0 0.01 
72 1 8 0.122768 -0.136526 0.224884 0 0 -1.09805 0 0 0 0 0 0 0.01 
73 1 8 0.122768 -0.136526 0.233884 0 0 -1.09805 0 0 0 0 0 0 0.01 
74 1 8 0.122768 -0.136526 0.242884 0 0 -1.09805 0 0 0 0 0 0 0.01 
75 1 8 0.122768 -0.136526 0.251884 0 0 -1.09805 0 0 0 0 0 0 0.01 
76 1 8 0.122768 -0.136526 0.260884 0 0 -1.09805 0 0 0 0 0 0 0.01 
77 1 8 0.122768 -0.136526 0.269884 0 0 -1.09805 0 0 0 0 0 0 0.01 
78 1 8 0.122768 -0.136526 0.278884 0 0 -1.09805 0 0 0 0 0 0 0.01 
79 1 8 0.122768 -0.136526 0.287884 0 0 -1.09805 0 0 0 0 0 0 0.01 
80 1 8 0.122768 -0.136526 0.296884 0 0 -1.09805 0 0 0 0 0 0 0.01 
81 1 9 -0.103348 0.0216352 0.347874 0 0 -1.09805 0 0 0 0 0 0 0.01 
82 1 9 -0.103348 0.0216352 0.356874 0 0 -1.09805 0 0 0 0 0 0 0.01 
83 1 9 -0.103348 0.0216352 0.365874 0 0 -1.09805 0 0 0 0 0 0 0.01 
84 1 9 -0.103348 0.0216352 0.374874 0 0 -1.09805 0 0 0 0 0 0 0.01 
85 1 9 -0.103348 0.0216352 0.383874 0 0 -1.09805 0 0 0 0 0 0 0.01 
86 1 9 -0.103348 0.0216352 0.392874 0 0 -1.09805 0 0 0 0 0 0 0.01 
87 1 9 -0.103348 0.0216352 0.401874 0 0 -1.09805 0 0 0 0 0 0 0.01 
88 1 9 -0.103348 0.0216352 0.410874 0 0 -1.09805 0 0 0 0 0 0 0.01 
89 1 9 -0.103348 0.0216352 0.419874 0 0 -1.09805 0 0 0 0 0 0 0.01 
90 1 9 -0.103348 0.0216352 0.428874 0 0 -1.09805 0 0 0 0 0 0 0.01 
91 1 10 0.0526392 0.204817 0.184344 0 0 -1.09805 0 0 0 0 0 0 0.01 
92 1 10 0.0526392 0.204817 0.193344 0 0 -1.09805 0 0 0 0 0 0 0.01 
93 1 10 0.0526392 0.204817 0.202344 0 0 -1.09805 0 0 0 0 0 0 0.01 
94 1 10 0.0526392 0.204817 0.211344 0 0 -1.09805 0 0 0 0 0 0 0.01 
95 1 10 0.0526392 0.204817 0.220344 0 0 -1.09805 0 0 0 0 0 0 0.01 
96 1 10 0.0526392 0.204817 0.229344 0 0 -1.09805 0 0 0 0 0 0 0.01 
97 1 10 0.0526392 0.204817 0.238344 0 0 -1.09805 0 0 0 0 0 0 0.01 
98 1 10 0.0526392 0.204817 0.247344 0 0 -1.09805 0 0 0 0 0 0 0.01 
99 1 10 0.0526392 0.204817 0.256344 0 0 -1.09805 0 0 0 0 0 0 0.01 
100 1 10 0.0526392 0.204817 0.265344 0 0 -1.09805 0 0 0 0 0 0 0.01 
101 1 11 -0.191384 -0.0894902 0.236654 0 0 -1.09805 0 0 0 0 0 0 0.01 
102 1 11 -0.191384 -0.0894902 0.245654 0 0 -1.09805 0 0 0 0 0 0 0.01 
103 1 11 -0.191384 -0.0894902 0.254654 0 0 -1.09805 0 0 0 0 0 0 0.01 
104 1 11 -0.191384 -0.0894902 0.263654 0 0 -1.09805 0 0 0 0 0 0 0.01 
105 1 11 -0.191384 -0.0894902 0.272654 0 0 -1.09805 0 0 0 0 0 0 0.01 
106 1 11 -0.191384 -0.0894902 0.281654 0 0 -1.09805 0 0 0 0 0 0 0.01 
107 1 11 -0.191384 -0.0894902 0.290654 0 0 -1.09805 0 0 0 0 0 0 0.01 
108 1 11 -0.191384 -0.0894902 0.299654 0 0 -1.09805 0 0 0 0 0 0 0.01 
109 1 11 -0.191384 -0.0894902 0.308654 0 0 -1.09805 0 0 0 0 0 0 0.01 
110 1 11 -0.191384 -0.0894902 0.317654 0 0 -1.09805 0 0 0 0 0 0 0.01 
111 1 12 0.0959754 0.0567813 0.167786 0 0 -1.09805 0 0 0 0 0 0 0.01 
112 1 12 0.0959754 0.0567813 0.176786 0 0 -1.09805 0 0 0 0 0 0 0.01 
113 1 12 0.0959754 0.0567813 0.185786 0 0 -1.09805 0 0 0 0 0 0 0.01 
114 1 12 0.0959754 0.0567813 0.194786 0 0 -1.09805 0 0 0 0 0 0 0.01 
115 1 12 0.0959754 0.0567813 0.203786 0 0 -1.09805 0 0 0 0 0 0 0.01 
116 1 12 0.0959754 0.0567813 0.212786 0 0 -1.09805 0 0 0 0 0 0 0.01 
117 1 12 0.0959754 0.0567813 0.221786 0 0 -1.09805 0 0 0 0 0 0 0.01 
118 1 12 0.0959754 0.0567813 0.230786 0 0 -1.09805 0 0 0 0 0 0 0.01 
119 1 12 0.0959754 0.0567813 0.239786 0 0 -1.09805 0 0 0 0 0 0 0.01 
120 1 12 0.0959754 0.0567813 0.248786 0 0 -1.09805 0 0 0 0 0 0 0.01 
121 1 13 -0.0168848 0.215837 0.321024 0 0 -1.09805 0 0 0 0 0 0 0.01 
122 1 13 -0.0168848 0.215837 0.330024 0 0 -1.09805 0 0 0 0 0 0 0.01 
123 1 13 -0.0168848 0.215837 0.339024 0 0 -1.09805 0 0 0 0 0 0 0.01 
124 1 13 -0.0168848 0.215837 0.348024 0 0 -1.09805 0 0 0 0 0 0 0.01 
125 1 13 -0.0168848 0.215837 0.357024 0 0 -1.09805 0 0 0 0 0 0 0.01 
126 1 13 -0.0168848 0.215837 0.366024 0 0 -1.09805 0 0 0 0 0 0 0.01 
127 1 13 -0.0168848 0.215837 0.375024 0 0 -1.09805 0 0 0 0 0 0 0.01 
128 1 13 -0.0168848 0.215837 0.384024 0 0 -1.09805 0 0 0 0 0 0 0.01 
129 1 13 -0.0168848 0.215837 0.393024 0 0 -1.09805 0 0 0 0 0 0 0.01 
130 1 13 -0.0168848 0.215837 0.402024 0 0 -1.09805 0 0 0 0 0 0 0.01 
131 1 14 -0.0494958 0.122461 0.0921748 0 0 -1.09805 0 0 0 0 0 0 0.01 
132 1 14 -0.0494958 0.122461 0.101175 0 0 -1.09805 0 0 0 0 0 0 0.01 
133 1 14 -0.0494958 0.122461 0.110175 0 0 -1.09805 0 0 0 0 0 0 0.01 
134 1 14 -0.0494958 0.122461 0.119175 0 0 -1.09805 0 0 0 0 0 0 0.01 
135 1 14 -0.0494958 0.122461 0.128175 0 0 -1.09805 0 0 0 0 0 0 0.01 
136 1 14 -0.0494958 0.122461 0.137175 0 0 -1.09805 0 0 0 0 0 0 0.01 
137 1 14 -0.0494958 0.122461 0.146175 0 0 -1.09805 0 0 0 0 0 0 0.01 
138 1 14 -0.0494958 0.122461 0.155175 0 0 -1.09805 0 0 0 0 0 0 0.01 
139 1 14 -0.0494958 0.122461 0.164175 0 0 -1.09805 0 0 0 0 0 0 0.01 
140 1 14 -0.0494958 0.122461 0.173175 0 0 -1.09805 0 0 0 0 0 0 0.01 
141 1 15 -0.0104758 -0.0692281 0.263383 0 0 -1.09805 0 0 0 0 0 0 0.01 
142 1 15 -0.0104758 -0.0692281 0.272383 0 0 -1.09805 0 0 0 0 0 0 0.01 
143 1 15 -0.0104758 -0.0692281 0.281383 0 0 -1.09805 0 0 0 0 0 0 0.01 
144 1 15 -0.0104758 -0.0692281 0.290383 0 0 -1.09805 0 0 0 0 0 0 0.01 
145 1 15 -0.0104758 -0.0692281 0.299383 0 0 -1.09805 0 0 0 0 0 0 0.01 
146 1 15 -0.0104758 -0.0692281 0.308383 0 0 -1.09805 0 0 0 0 0 0 0.01 
147 1 15 -0.0104758 -0.0692281 0.317383 0 0 -1.09805 0 0 0 0 0 0 0.01 
148 1 15 -0.0104758 -0.0692281 0.326383 0 0 -1.09805 0 0 0 0 0 0 0.01 
149 1 15 -0.0104758 -0.0692281 0.335383 0 0 -1.09805 0 0 0 0 0 0 0.01 
150 1 15 -0.0104758 -0.0692281 0.344383 0 0 -1.09805 0 0 0 0 0 0 0.01 
151 1 16 -0.0407462 0.176734 0.196866 0 0 -1.09805 0 0 0 0 0 0 0.01 
152 1 16 -0.0407462 0.176734 0.205866 0 0 -1.09805 0 0 0 0 0 0 0.01 
153 1 16 -0.0407462 0.176734 0.214866 0 0 -1.09805 0 0 0 0 0 0 0.01 
154 1 16 -0.0407462 0.176734 0.223866 0 0 -1.09805 0 0 0 0 0 0 0.01 
155 1 16 -0.0407462 0.176734 0.232866 0 0 -1.09805 0 0 0 0 0 0 0.01 
156 1 16 -0.0407462 0.176734 0.241866 0 0 -1.09805 0 0 0 0 0 0 0.01 
157 1 16 -0.0407462 0.176734 0.250866 0 0 -1.09805 0 0 0 0 0 0 0.01 
158 1 16 -0.0407462 0.176734 0.259866 0 0 -1.09805 0 0 0 0 0 0 0.01 
159 1 16 -0.0407462 0.176734 0.268866 0 0 -1.09805 0 0 0 0 0 0 0.01 
160 1 16 -0.0407462 0.176734 0.277866 0 0 -1.09805 0 0 0 0 0 0 0.01 
161 1 17 0.0731894 0.0923845 0.0970575 0 0 -1.09805 0 0 0 0 0 0 0.01 
162 1 17 0.0731894 0.0923845 0.106057 0 0 -1.09805 0 0 0 0 0 0 0.01 
163 1 17 0.0731894 0.0923845 0.115057 0 0 -1.09805 0 0 0 0 0 0 0.01 
164 1 17 0.0731894 0.0923845 0.124057 0 0 -1.09805 0 0 0 0 0 0 0.01 
165 1 17 0.0731894 0.0923845 0.133057 0 0 -1.09805 0 0 0 0 0 0 0.01 
166 1 17 0.0731894 0.0923845 0.142057 0 0 -1.09805 0 0 0 0 0 0 0.01 
167 1 17 0.0731894 0.0923845 0.151057 0 0 -1.09805 0 0 0 0 0 0 0.01 
168 1 17 0.0731894 0.0923845 0.160057 0 0 -1.09805 0 0 0 0 0 0 0.01 
169 1 17 0.0731894 0.0923845 0.169057 0 0 -1.09805 0 0 0 0 0 0 0.01 
170 1 17 0.0731894 0.0923845 0.178057 0 0 -1.09805 0 0 0 0 0 0 0.01 
171 1 18 -0.23779 -0.0339416 0.299526 0 0 -1.09805 0 0 0 0 0 0 0.01 
172 1 18 -0.23779 -0.0339416 0.308526 0 0 -1.09805 0 0 0 0 0 0 0.01 
173 1 18 -0.23779 -0.0339416 0.317526 0 0 -1.09805 0 0 0 0 0 0 0.01 
174 1 18 -0.23779 -0.0339416 0.326526 0 0 -1.09805 0 0 0 0 0 0 0.01 
175 1 18 -0.23779 -0.0339416 0.335526 0 0 -1.09805 0 0 0 0 0 0 0.01 
176 1 18 -0.23779 -0.0339416 0.344526 0 0 -1.09805 0 0 0 0 0 0 0.01 
177 1 18 -0.23779 -0.0339416 0.353526 0 0 -1.09805 0 0 0 0 0 0 0.01 
178 1 18 -0.23779 -0.0339416 0.362526 0 0 -1.09805 0 0 0 0 0 0 0.01 
179 1 18 -0.23779 -0.0339416 0.371526 0 0 -1.09805 0 0 0 0 0 0 0.01 
180 1 18 -0.23779 -0.0339416 0.380526 0 0 -1.09805 0 0 0 0 0 0 0.01 
181 1 19 0.00334189 0.165527 0.276777 0 0 -1.09805 0 0 0 0 0 0 0.01 
182 1 19 0.00334189 0.165527 0.285777 0 0 -1.09805 0 0 0 0 0 0 0.01 
183 1 19 0.00334189 0.165527 0.294777 0 0 -1.09805 0 0 0 0 0 0 0.01 
184 1 19 0.00334189 0.165527 0.303777 0 0 -1.09805 0 0 0 0 0 0 0.01 
185 1 19 0.00334189 0.165527 0.312777 0 0 -1.09805 0 0 0 0 0 0 0.01 
186 1 19 0.00334189 0.165527 0.321777 0 0 -1.09805 0 0 0 0 0 0 0.01 
187 1 19 0.00334189 0.165527 0.330777 0 0 -1.09805 0 0 0 0 0 0 0.01 
188 1 19 0.00334189 0.165527 0.339777 0 0 -1.09805 0 0 0 0 0 0 0.01 
189 1 19 0.00334189 0.165527 0.348777 0 0 -1.09805 0 0 0 0 0 0 0.01 
190 1 19 0.00334189 0.165527 0.357777 0 0 -1.09805 0 0 0 0 0 0 0.01 
191 1 20 -0.00784267 0.186597 0.0542095 0 0 -1.09805 0 0 0 0 0 0 0.01 
192 1 20 -0.00784267 0.186597 0.0632095 0 0 -1.09805 0 0 0 0 0 0 0.01 
193 1 20 -0.00784267 0.186597 0.0722095 0 0 -1.09805 0 0 0 0 0 0 0.01 
194 1 20 -0.00784267 0.186597 0.0812095 0 0 -1.09805 0 0 0 0 0 0 0.01 
195 1 20 -0.00784267 0.186597 0.0902095 0 0 -1.09805 0 0 0 0 0 0 0.01 
196 1 20 -0.00784267 0.186597 0.0992095 0 0 -1.09805 0 0 0 0 0 0 0.01 
197 1 20 -0.00784267 0.186597 0.10821 0 0 -1.09805 0 0 0 0 0 0 0.01 
198 1 20 -0.00784267 0.186597 0.11721 0 0 -1.09805 0 0 0 0 0 0 0.01 
199 1 20 -0.00784267 0.186597 0.12621 0 0 -1.09805 0 0 0 0 0 0 0.01 
200 1 20 -0.00784267 0.186597 0.13521 0 0 -1.09805 0 0 0 0 0 0 0.01 
201 1 21 0.0195457 0.00369696 0.054673 0 0 -1.09805 0 0 0 0 0 0 0.01 
202 1 21 0.0195457 0.00369696 0.063673 0 0 -1.09805 0 0 0 0 0 0 0.01 
203 1 21 0.0195457 0.00369696 0.072673 0 0 -1.09805 0 0 0 0 0 0 0.01 
204 1 21 0.0195457 0.00369696 0.081673 0 0 -1.09805 0 0 0 0 0 0 0.01 
205 1 21 0.0195457 0.00369696 0.090673 0 0 -1.09805 0 0 0 0 0 0 0.01 
206 1 21 0.0195457 0.00369696 0.099673 0 0 -1.09805 0 0 0 0 0 0 0.01 
207 1 21 0.0195457 0.00369696 0.108673 0 0 -1.09805 0 0 0 0 0 0 0.01 
208 1 21 0.0195457 0.00369696 0.117673 0 0 -1.09805 0 0 0 0 0 0 0.01 
209 1 21 0.0195457 0.00369696 0.126673 0 0 -1.09805 0 0 0 0 0 0 0.01 
210 1 21 0.0195457 0.00369696 0.135673 0 0 -1.09805 0 0 0 0 0 0 0.01 
211 1 22 0.00289755 0.197355 0.236783 0 0 -1.09805 0 0 0 0 0 0 0.01 
212 1 22 0.00289755 0.197355 0.245783 0 0 -1.09805 0 0 0 0 0 0 0.01 
213 1 22 0.00289755 0.197355 0.254783 0 0 -1.09805 0 0 0 0 0 0 0.01 
214 1 22 0.00289755 0.197355 0.263783 0 0 -1.09805 0 0 0 0 0 0 0.01 
215 1 22 0.00289755 0.197355 0.272783 0 0 -1.09805 0 0 0 0 0 0 0.01 
216 1 22 0.00289755 0.197355 0.281783 0 0 -1.09805 0 0 0 0 0 0 0.01 
217 1 22 0.00289755 0.197355 0.290783 0 0 -1.09805 0 0 0 0 0 0 0.01 
218 1 22 0.00289755 0.197355 0.299783 0 0 -1.09805 0 0 0 0 0 0 0.01 
219 1 22 0.00289755 0.197355 0.308783 0 0 -1.09805 0 0 0 0 0 0 0.01 
220 1 22 0.00289755 0.197355 0.317783 0 0 -1.09805 0 0 0 0 0 0 0.01 
221 1 23 0.214349 0.0539113 0.326315 0 0 -1.09805 0 0 0 0 0 0 0.01 
222 1 23 0.214349 0.0539113 0.335315 0 0 -1.09805 0 0 0 0 0 0 0.01 
223 1 23 0.214349 0.0539113 0.344315 0 0 -1.09805 0 0 0 0 0 0 0.01 
224 1 23 0.214349 0.0539113 0.353315 0 0 -1.09805 0 0 0 0 0 0 0.01 
225 1 23 0.214349 0.0539113 0.362315 0 0 -1.09805 0 0 0 0 0 0 0.01 
226 1 23 0.214349 0.0539113 0.371315 0 0 -1.09805 0 0 0 0 0 0 0.01 
227 1 23 0.214349 0.0539113 0.380315 0 0 -1.09805 0 0 0 0 0 0 0.01 
228 1 23 0.214349 0.0539113 0.389315 0 0 -1.09805 0 0 0 0 0 0 0.01 
229 1 23 0.214349 0.0539113 0.398315 0 0 -1.09805 0 0 0 0 0 0 0.01 
230 1 23 0.214349 0.0539113 0.407315 0 0 -1.09805 0 0 0 0 0 0 0.01 
231 1 24 0.157258 0.0254774 0.092769 0 0 -1.09805 0 0 0 0 0 0 0.01 
232 1 24 0.157258 0.0254774 0.101769 0 0 -1.09805 0 0 0 0 0 0 0.01 
233 1 24 0.157258 0.0254774 0.110769 0 0 -1.09805 0 0 0 0 0 0 0.01 
234 1 24 0.157258 0.0254774 0.119769 0 0 -1.09805 0 0 0 0 0 0 0.01 
235 1 24 0.157258 0.0254774 0.128769 0 0 -1.09805 0 0 0 0 0 0 0.01 
236 1 24 0.157258 0.0254774 0.137769 0 0 -1.09805 0 0 0 0 0 0 0.01 
237 1 24 0.157258 0.0254774 0.146769 0 0 -1.09805 0 0 0 0 0 0 0.01 
238 1 24 0.157258 0.0254774 0.155769 0 0 -1.09805 0 0 0 0 0 0 0.01 
239 1 24 0.157258 0.0254774 0.164769 0 0 -1.09805 0 0 0 0 0 0 0.01 
240 1 24 0.157258 0.0254774 0.173769 0 0 -1.09805 0 0 0 0 0 0 0.01 
241 1 25 0.134963 -0.174125 0.264139 0 0 -1.09805 0 0 0 0 0 0 0.01 
242 1 25 0.134963 -0.174125 0.273139 0 0 -1.09805 0 0 0 0 0 0 0.01 
243 1 25 0.134963 -0.174125 0.282139 0 0 -1.09805 0 0 0 0 0 0 0.01 
244 1 25 0.134963 -0.174125 0.291139 0 0 -1.09805 0 0 0 0 0 0 0.01 
245 1 25 0.134963 -0.174125 0.300139 0 0 -1.09805 0 0 0 0 0 0 0.01 
246 1 25 0.134963 -0.174125 0.309139 0 0 -1.09805 0 0 0 0 0 0 0.01 
247 1 25 0.134963 -0.174125 0.318139 0 0 -1.09805 0 0 0 0 0 0 0.01 
248 1 25 0.134963 -0.174125 0.327139 0 0 -1.09805 0 0 0 0 0 0 0.01 
249 1 25 0.134963 -0.174125 0.336139 0 0 -1.09805 0 0 0 0 0 0 0.01 
250 1 25 0.134963 -0.174125 0.345139 0 0 -1.09805 0 0 0 0 0 0 0.01 
251 1 26 -0.00920263 -0.17024 0.137812 0 0 -1.09805 0 0 0 0 0 0 0.01 
252 1 26 -0.00920263 -0.17024 0.146812 0 0 -1.09805 0 0 0 0 0 0 0.01 
253 1 26 -0.00920263 -0.17024 0.155812 0 0 -1.09805 0 0 0 0 0 0 0.01 
254 1 26 -0.00920263 -0.17024 0.164812 0 0 -1.09805 0 0 0 0 0 0 0.01 
255 1 26 -0.00920263 -0.17024 0.173812 0 0 -1.09805 0 0 0 0 0 0 0.01 
256 1 26 -0.00920263 -0.17024 0.182812 0 0 -1.09805 0 0 0 0 0 0 0.01 
257 1 26 -0.00920263 -0.17024 0.191812 0 0 -1.09805 0 0 0 0 0 0 0.01 
258 1 26 -0.00920263 -0.17024 0.200812 0 0 -1.09805 0 0 0 0 0 0 0.01 
259 1 26 -0.00920263 -0.17024 0.209812 0 0 -1.09805 0 0 0 0 0 0 0.01 
260 1 26 -0.00920263 -0.17024 0.218812 0 0 -1.09805 0 0 0 0 0 0 0.01 
261 1 27 -0.145674 0.150591 0.261329 0 0 -1.09805 0 0 0 0 0 0 0.01 
262 1 27 -0.145674 0.150591 0.270329 0 0 -1.09805 0 0 0 0 0 0 0.01 
263 1 27 -0.145674 0.150591 0.279329 0 0 -1.09805 0 0 0 0 0 0 0.01 
264 1 27 -0.145674 0.150591 0.288329 0 0 -1.09805 0 0 0 0 0 0 0.01 
265 1 27 -0.145674 0.150591 0.297329 0 0 -1.09805 0 0 0 0 0 0 0.01 
266 1 27 -0.145674 0.150591 0.306329 0 0 -1.09805 0 0 0 0 0 0 0.01 
267 1 27 -0.145674 0.150591 0.315329 0 0 -1.09805 0 0 0 0 0 0 0.01 
268 1 27 -0.145674 0.150591 0.324329 0 0 -1.09805 0 0 0 0 0 0 0.01 
269 1 27 -0.145674 0.150591 0.333329 0 0 -1.09805 0 0 0 0 0 0 0.01 
270 1 27 -0.145674 0.150591 0.342329 0 0 -1.09805 0 0 0 0 0 0 0.01 
271 1 28 0.0144186 -0.169101 0.221892 0 0 -1.09805 0 0 0 0 0 0 0.01 
272 1 28 0.0144186 -0.169101 0.230892 0 0 -1.09805 0 0 0 0 0 0 0.01 
273 1 28 0.0144186 -0.169101 0.239892 0 0 -1.09805 0 0 0 0 0 0 0.01 
274 1 28 0.0144186 -0.169101 0.248892 0 0 -1.09805 0 0 0 0 0 0 0.01 
275 1 28 0.0144186 -0.169101 0.257892 0 0 -1.09805 0 0 0 0 0 0 0.01 
276 1 28 0.0144186 -0.169101 0.266892 0 0 -1.09805 0 0 0 0 0 0 0.01 
277 1 28 0.0144186 -0.169101 0.275892 0 0 -1.09805 0 0 0 0 0 0 0.01 
278 1 28 0.0144186 -0.169101 0.284892 0 0 -1.09805 0 0 0 0 0 0 0.01 
279 1 28 0.0144186 -0.169101 0.293892 0 0 -1.09805 0 0 0 0 0 0 0.01 
280 1 28 0.0144186 -0.169101 0.302892 0 0 -1.09805 0 0 0 0 0 0 0.01 
281 1 29 0.0770886 0.126327 0.0805528 0 0 -1.09805 0 0 0 0 0 0 0.01 
282 1 29 0.0770886 0.126327 0.0895528 0 0 -1.09805 0 0 0 0 0 0 0.01 
283 1 29 0.0770886 0.126327 0.0985528 0 0 -1.09805 0 0 0 0 0 0 0.01 
284 1 29 0.0770886 0.126327 0.107553 0 0 -1.09805 0 0 0 0 0 0 0.01 
285 1 29 0.0770886 0.126327 0.116553 0 0 -1.09805 0 0 0 0 0 0 0.01 
286 1 29 0.0770886 0.126327 0.125553 0 0 -1.09805 0 0 0 0 0 0 0.01 
287 1 29 0.0770886 0.126327 0.134553 0 0 -1.09805 0 0 0 0 0 0 0.01 
288 1 29 0.0770886 0.126327 0.143553 0 0 -1.09805 0 0 0 0 0 0 0.01 
289 1 29 0.0770886 0.126327 0.152553 0 0 -1.09805 0 0 0 0 0 0 0.01 
290 1 29 0.0770886 0.126327 0.161553 0 0 -1.09805 0 0 0 0 0 0 0.01 
291 1 30 -0.0622987 -0.0566083 0.323972 0 0 -1.09805 0 0 0 0 0 0 0.01 
292 1 30 -0.0622987 -0.0566083 0.332972 0 0 -1.09805 0 0 0 0 0 0 0.01 
293 1 30 -0.0622987 -0.0566083 0.341972 0 0 -1.09805 0 0 0 0 0 0 0.01 
294 1 30 -0.0622987 -0.0566083 0.350972 0 0 -1.09805 0 0 0 0 0 0 0.01 
295 1 30 -0.0622987 -0.0566083 0.359972 0 0 -1.09805 0 0 0 0 0 0 0.01 
296 1 30 -0.0622987 -0.0566083 0.368972 0 0 -1.09805 0 0 0 0 0 0 0.01 
297 1 30 -0.0622987 -0.0566083 0.377972 0 0 -1.09805 0 0 0 0 0 0 0.01 
298 1 30 -0.0622987 -0.0566083 0.386972 0 0 -1.09805 0 0 0 0 0 0 0.01 
299 1 30 -0.0622987 -0.0566083 0.395972 0 0 -1.09805 0 0 0 0 0 0 0.01 
300 1 30 -0.0622987 -0.0566083 0.404972 0 0 -1.09805 0 0 0 0 0 0 0.01 
301 1 31 0.0111005 0.0641788 0.0660086 0 0 -1.09805 0 0 0 0 0 0 0.01 
302 1 31 0.0111005 0.0641788 0.0750086 0 0 -1.09805 0 0 0 0 0 0 0.01 
303 1 31 0.0111005 0.0641788 0.0840086 0 0 -1.09805 0 0 0 0 0 0 0.01 
304 1 31 0.0111005 0.0641788 0.0930086 0 0 -1.09805 0 0 0 0 0 0 0.01 
305 1 31 0.0111005 0.0641788 0.102009 0 0 -1.09805 0 0 0 0 0 0 0.01 
306 1 31 0.0111005 0.0641788 0.111009 0 0 -1.09805 0 0 0 0 0 0 0.01 
307 1 31 0.0111005 0.0641788 0.120009 0 0 -1.09805 0 0 0 0 0 0 0.01 
308 1 31 0.0111005 0.0641788 0.129009 0 0 -1.09805 0 0 0 0 0 0 0.01 
309 1 31 0.0111005 0.0641788 0.138009 0 0 -1.09805 0 0 0 0 0 0 0.01 
310 1 31 0.0111005 0.0641788 0.147009 0 0 -1.09805 0 0 0 0 0 0 0.01 
311 1 32 0.0320384 -0.0315173 0.147218 0 0 -1.09805 0 0 0 0 0 0 0.01 
312 1 32 0.0320384 -0.0315173 0.156218 0 0 -1.09805 0 0 0 0 0 0 0.01 
313 1 32 0.0320384 -0.0315173 0.165218 0 0 -1.09805 0 0 0 0 0 0 0.01 
314 1 32 0.0320384 -0.0315173 0.174218 0 0 -1.09805 0 0 0 0 0 0 0.01 
315 1 32 0.0320384 -0.0315173 0.183218 0 0 -1.09805 0 0 0 0 0 0 0.01 
316 1 32 0.0320384 -0.0315173 0.192218 0 0 -1.09805 0 0 0 0 0 0 0.01 
317 1 32 0.0320384 -0.0315173 0.201218 0 0 -1.09805 0 0 0 0 0 0 0.01 
318 1 32 0.0320384 -0.0315173 0.210218 0 0 -1.09805 0 0 0 0 0 0 0.01 
319 1 32 0.0320384 -0.0315173 0.219218 0 0 -1.09805 0 0 0 0 0 0 0.01 
320 1 32 0.0320384 -0.0315173 0.228218 0 0 -1.09805 0 0 0 0 0 0 0.01 
321 1 33 -0.164367 -0.0225208 0.269474 0 0 -1.09805 0 0 0 0 0 0 0.01 
322 1 33 -0.164367 -0.0225208 0.278474 0 0 -1.09805 0 0 0 0 0 0 0.01 
323 1 33 -0.164367 -0.0225208 0.287474 0 0 -1.09805 0 0 0 0 0 0 0.01 
324 1 33 -0.164367 -0.0225208 0.296474 0 0 -1.09805 0 0 0 0 0 0 0.01 
325 1 33 -0.164367 -0.0225208 0.305474 0 0 -1.09805 0 0 0 0 0 0 0.01 
326 1 33 -0.164367 -0.0225208 0.314474 0 0 -1.09805 0 0 0 0 0 0 0.01 
327 1 33 -0.164367 -0.0225208 0.323474 0 0 -1.09805 0 0 0 0 0 0 0.01 
328 1 33 -0.164367 -0.0225208 0.332474 0 0 -1.09805 0 0 0 0 0 0 0.01 
329 1 33 -0.164367 -0.0225208 0.341474 0 0 -1.09805 0 0 0 0 0 0 0.01 
330 1 33 -0.164367 -0.0225208 0.350474 0 0 -1.09805 0 0 0 0 0 0 0.01 
331 1 34 -0.0753724 0.213735 0.120078 0 0 -1.09805 0 0 0 0 0 0 0.01 
332 1 34 -0.0753724 0.213735 0.129078 0 0 -1.09805 0 0 0 0 0 0 0.01 
333 1 34 -0.0753724 0.213735 0.138078 0 0 -1.09805 0 0 0 0 0 0 0.01 
334 1 34 -0.0753724 0.213735 0.147078 0 0 -1.09805 0 0 0 0 0 0 0.01 
335 1 34 -0.0753724 0.213735 0.156078 0 0 -1.09805 0 0 0 0 0 0 0.01 
336 1 34 -0.0753724 0.213735 0.165078 0 0 -1.09805 0 0 0 0 0 0 0.01 
337 1 34 -0.0753724 0.213735 0.174078 0 0 -1.09805 0 0 0 0 0 0 0.01 
338 1 34 -0.0753724 0.213735 0.183078 0 0 -1.09805 0 0 0 0 0 0 0.01 
339 1 34 -0.0753724 0.213735 0.192078 0 0 -1.09805 0 0 0 0 0 0 0.01 
340 1 34 -0.0753724 0.213735 0.201078 0 0 -1.09805 0 0 0 0 0 0 0.01 
341 1 35 0.107324 -0.21107 0.300141 0 0 -1.09805 0 0 0 0 0 0 0.01 
342 1 35 0.107324 -0.21107 0.309141 0 0 -1.09805 0 0 0 0 0 0 0.01 
343 1 35 0.107324 -0.21107 0.318141 0 0 -1.09805 0 0 0 0 0 0 0.01 
344 1 35 0.107324 -0.21107 0.327141 0 0 -1.09805 0 0 0 0 0 0 0.01 
345 1 35 0.107324 -0.21107 0.336141 0 0 -1.09805 0 0 0 0 0 0 0.01 
346 1 35 0.107324 -0.21107 0.345141 0 0 -1.09805 0 0 0 0 0 0 0.01 
347 1 35 0.107324 -0.21107 0.354141 0 0 -1.09805 0 0 0 0 0 0 0.01 
348 1 35 0.107324 -0.21107 0.363141 0 0 -1.09805 0 0 0 0 0 0 0.01 
349 1 35 0.107324 -0.21107 0.372141 0 0 -1.09805 0 0 0 0 0 0 0.01 
350 1 35 0.107324 -0.21107 0.381141 0 0 -1.09805 0 0 0 0 0 0 0.01 
351 1 36 -0.0369915 -0.217979 0.23328 0 0 -1.09805 0 0 0 0 0 0 0.01 
352 1 36 -0.0369915 -0.217979 0.24228 0 0 -1.09805 0 0 0 0 0 0 0.01 
353 1 36 -0.0369915 -0.217979 0.25128 0 0 -1.09805 0 0 0 0 0 0 0.01 
354 1 36 -0.0369915 -0.217979 0.26028 0 0 -1.09805 0 0 0 0 0 0 0.01 
355 1 36 -0.0369915 -0.217979 0.26928 0 0 -1.09805 0 0 0 0 0 0 0.01 
356 1 36 -0.0369915 -0.217979 0.27828 0 0 -1.09805 0 0 0 0 0 0 0.01 
357 1 36 -0.0369915 -0.217979 0.28728 0 0 -1.09805 0 0 0 0 0 0 0.01 
358 1 36 -0.0369915 -0.217979 0.29628 0 0 -1.09805 0 0 0 0 0 0 0.01 
359 1 36 -0.0369915 -0.217979 0.30528 0 0 -1.09805 0 0 0 0 0 0 0.01 
360 1 36 -0.0369915 -0.217979 0.31428 0 0 -1.09805 0 0 0 0 0 0 0.01 
361 1 37 0.0719128 0.13673 0.283016 0 0 -1.09805 0 0 0 0 0 0 0.01 
362 1 37 0.0719128 0.13673 0.292016 0 0 -1.09805 0 0 0 0 0 0 0.01 
363 1 37 0.0719128 0.13673 0.301016 0 0 -1.09805 0 0 0 0 0 0 0.01 
364 1 37 0.0719128 0.13673 0.310016 0 0 -1.09805 0 0 0 0 0 0 0.01 
365 1 37 0.0719128 0.13673 0.319016 0 0 -1.09805 0 0 0 0 0 0 0.01 
366 1 37 0.0719128 0.13673 0.328016 0 0 -1.09805 0 0 0 0 0 0 0.01 
367 1 37 0.0719128 0.13673 0.337016 0 0 -1.09805 0 0 0 0 0 0 0.01 
368 1 37 0.0719128 0.13673 0.346016 0 0 -1.09805 0 0 0 0 0 0 0.01 
369 1 37 0.0719128 0.13673 0.355016 0 0 -1.09805 0 0 0 0 0 0 0.01 
370 1 37 0.0719128 0.13673 0.364016 0 0 -1.09805 0 0 0 0 0 0 0.01 
371 1 38 -0.156963 -0.0782603 0.0815633 0 0 -1.09805 0 0 0 0 0 0 0.01 
372 1 38 -0.156963 -0.0782603 0.0905633 0 0 -1.09805 0 0 0 0 0 0 0.01 
373 1 38 -0.156963 -0.0782603 0.0995633 0 0 -1.09805 0 0 0 0 0 0 0.01 
374 1 38 -0.156963 -0.0782603 0.108563 0 0 -1.09805 0 0 0 0 0 0 0.01 
375 1 38 -0.156963 -0.0782603 0.117563 0 0 -1.09805 0 0 0 0 0 0 0.01 
376 1 38 -0.156963 -0.0782603 0.126563 0 0 -1.09805 0 0 0 0 0 0 0.01 
377 1 38 -0.156963 -0.0782603 0.135563 0 0 -1.09805 0 0 0 0 0 0 0.01 
378 1 38 -0.156963 -0.0782603 0.144563 0 0 -1.09805 0 0 0 0 0 0 0.01 
379 1 38 -0.156963 -0.0782603 0.153563 0 0 -1.09805 0 0 0 0 0 0 0.01 
380 1 38 -0.156963 -0.0782603 0.162563 0 0 -1.09805 0 0 0 0 0 0 0.01 
381 1 39 -0.132731 0.194202 0.242078 0 0 -1.09805 0 0 0 0 0 0 0.01 
382 1 39 -0.132731 0.194202 0.251078 0 0 -1.09805 0 0 0 0 0 0 0.01 
383 1 39 -0.132731 0.194202 0.260078 0 0 -1.09805 0 0 0 0 0 0 0.01 
384 1 39 -0.132731 0.194202 0.269078 0 0 -1.09805 0 0 0 0 0 0 0.01 
385 1 39 -0.132731 0.194202 0.278078 0 0 -1.09805 0 0 0 0 0 0 0.01 
386 1 39 -0.132731 0.194202 0.287078 0 0 -1.09805 0 0 0 0 0 0 0.01 
387 1 39 -0.132731 0.194202 0.296078 0 0 -1.09805 0 0 0 0 0 0 0.01 
388 1 39 -0.132731 0.194202 0.305078 0 0 -1.09805 0 0 0 0 0 0 0.01 
389 1 39 -0.132731 0.194202 0.314078 0 0 -1.09805 0 0 0 0 0 0 0.01 
390 1 39 -0.132731 0.194202 0.323078 0 0 -1.09805 0 0 0 0 0 0 0.01 
391 1 40 0.0157305 -0.119676 0.34128 0 0 -1.09805 0 0 0 0 0 0 0.01 
392 1 40 0.0157305 -0.119676 0.35028 0 0 -1.09805 0 0 0 0 0 0 0.01 
393 1 40 0.0157305 -0.119676 0.35928 0 0 -1.09805 0 0 0 0 0 0 0.01 
394 1 40 0.0157305 -0.119676 0.36828 0 0 -1.09805 0 0 0 0 0 0 0.01 
395 1 40 0.0157305 -0.119676 0.37728 0 0 -1.09805 0 0 0 0 0 0 0.01 
396 1 40 0.0157305 -0.119676 0.38628 0 0 -1.09805 0 0 0 0 0 0 0.01 
397 1 40 0.0157305 -0.119676 0.39528 0 0 -1.09805 0 0 0 0 0 0 0.01 
398 1 40 0.0157305 -0.119676 0.40428 0 0 -1.09805 0 0 0 0 0 0 0.01 
399 1 40 0.0157305 -0.119676 0.41328 0 0 -1.09805 0 0 0 0 0 0 0.01 
400 1 40 0.0157305 -0.119676 0.42228 0 0 -1.09805 0 0 0 0 0 0 0.01 
401 1 41 -0.158558 0.109248 0.0548381 0 0 -1.09805 0 0 0 0 0 0 0.01 
402 1 41 -0.158558 0.109248 0.0638381 0 0 -1.09805 0 0 0 0 0 0 0.01 
403 1 41 -0.158558 0.109248 0.0728381 0 0 -1.09805 0 0 0 0 0 0 0.01 
404 1 41 -0.158558 0.109248 0.0818381 0 0 -1.09805 0 0 0 0 0 0 0.01 
405 1 41 -0.158558 0.109248 0.0908381 0 0 -1.09805 0 0 0 0 0 0 0.01 
406 1 41 -0.158558 0.109248 0.0998381 0 0 -1.09805 0 0 0 0 0 0 0.01 
407 1 41 -0.158558 0.109248 0.108838 0 0 -1.09805 0 0 0 0 0 0 0.01 
408 1 41 -0.158558 0.109248 0.117838 0 0 -1.09805 0 0 0 0 0 0 0.01 
409 1 41 -0.158558 0.109248 0.126838 0 0 -1.09805 0 0 0 0 0 0 0.01 
410 1 41 -0.158558 0.109248 0.135838 0 0 -1.09805 0 0 0 0 0 0 0.01 
411 1 42 0.127323 -0.0832319 0.347042 0 0 -1.09805 0 0 0 0 0 0 0.01 
412 1 42 0.127323 -0.0832319 0.356042 0 0 -1.09805 0 0 0 0 0 0 0.01 
413 1 42 0.127323 -0.0832319 0.365042 0 0 -1.09805 0 0 0 0 0 0 0.01 
414 1 42 0.127323 -0.0832319 0.374042 0 0 -1.09805 0 0 0 0 0 0 0.01 
415 1 42 0.127323 -0.0832319 0.383042 0 0 -1.09805 0 0 0 0 0 0 0.01 
416 1 42 0.127323 -0.0832319 0.392042 0 0 -1.09805 0 0 0 0 0 0 0.01 
417 1 42 0.127323 -0.0832319 0.401042 0 0 -1.09805 0 0 0 0 0 0 0.01 
418 1 42 0.127323 -0.0832319 0.410042 0 0 -1.09805 0 0 0 0 0 0 0.01 
419 1 42 0.127323 -0.0832319 0.419042 0 0 -1.09805 0 0 0 0 0 0 0.01 
420 1 42 0.127323 -0.0832319 0.428042 0 0 -1.09805 0 0 0 0 0 0 0.01 
421 1 43 0.136585 0.0746672 0.232571 0 0 -1.09805 0 0 0 0 0 0 0.01 
422 1 43 0.136585 0.0746672 0.241571 0 0 -1.09805 0 0 0 0 0 0 0.01 
423 1 43 0.136585 0.0746672 0.250571 0 0 -1.09805 0 0 0 0 0 0 0.01 
424 1 43 0.136585 0.0746672 0.259571 0 0 -1.09805 0 0 0 0 0 0 0.01 
425 1 43 0.136585 0.0746672 0.268571 0 0 -1.09805 0 0 0 0 0 0 0.01 
426 1 43 0.136585 0.0746672 0.277571 0 0 -1.09805 0 0 0 0 0 0 0.01 
427 1 43 0.136585 0.0746672 0.286571 0 0 -1.09805 0 0 0 0 0 0 0.01 
428 1 43 0.136585 0.0746672 0.295571 0 0 -1.09805 0 0 0 0 0 0 0.01 