ITEM: TIMESTEP
12000
ITEM: NUMBER OF ATOMS
6300
ITEM: BOX BOUNDS mm mm mm
-0.3 0.3
-0.3 0.3
0 0.5
ITEM: ATOMS id type mol x y z vx vy vz fx fy fz omegax omegay omegaz radius 
1 1 1 -0.115909 -0.127869 0.105197 -0.00600236 0.0404039 -0.106939 0 0 0 -2.77623 -2.20848 1.46845 0.01 
2 1 1 -0.116348 -0.127352 0.114172 -0.0265815 0.0646737 -0.109345 0 0 0 -2.77623 -2.20848 1.46845 0.01 
3 1 1 -0.116788 -0.126835 0.123146 -0.0471605 0.0889435 -0.111751 0 0 0 -2.77623 -2.20848 1.46845 0.01 
4 1 1 -0.117227 -0.126318 0.13212 -0.0677396 0.113213 -0.114157 0 0 0 -2.77623 -2.20848 1.46845 0.01 
5 1 1 -0.117667 -0.125801 0.141095 -0.0883187 0.137483 -0.116563 0 0 0 -2.77623 -2.20848 1.46845 0.01 
6 1 1 -0.118106 -0.125284 0.150069 -0.108898 0.161753 -0.118969 0 0 0 -2.77623 -2.20848 1.46845 0.01 
7 1 1 -0.118545 -0.124766 0.159044 -0.129477 0.186023 -0.121375 0 0 0 -2.77623 -2.20848 1.46845 0.01 
8 1 1 -0.118985 -0.124249 0.168018 -0.150056 0.210292 -0.123781 0 0 0 -2.77623 -2.20848 1.46845 0.01 
9 1 1 -0.119424 -0.123732 0.176992 -0.170635 0.234562 -0.126186 0 0 0 -2.77623 -2.20848 1.46845 0.01 
10 1 1 -0.119863 -0.123215 0.185967 -0.191214 0.258832 -0.128592 0 0 0 -2.77623 -2.20848 1.46845 0.01 
11 1 2 -0.0407068 -0.10469 0.0768309 0.145207 -0.013679 -0.892664 0 0 0 -0.171714 0.702172 15.731 0.01 
12 1 2 -0.0409322 -0.104333 0.085821 0.145907 -0.0156813 -0.892567 0 0 0 -0.171714 0.702172 15.731 0.01 
13 1 2 -0.0411576 -0.103976 0.0948111 0.146606 -0.0176836 -0.89247 3.06465 -2.01193 3.02156 -0.171714 0.702172 15.731 0.01 
14 1 2 -0.0413831 -0.10362 0.103801 0.147306 -0.0196859 -0.892373 0 0 0 -0.171714 0.702172 15.731 0.01 
15 1 2 -0.0416085 -0.103263 0.112791 0.148005 -0.0216883 -0.892276 0 0 0 -0.171714 0.702172 15.731 0.01 
16 1 2 -0.0418339 -0.102906 0.121781 0.148705 -0.0236906 -0.892179 0 0 0 -0.171714 0.702172 15.731 0.01 
17 1 2 -0.0420593 -0.102549 0.130771 0.149404 -0.0256929 -0.892082 0 0 0 -0.171714 0.702172 15.731 0.01 
18 1 2 -0.0422847 -0.102192 0.139762 0.150104 -0.0276953 -0.891985 0 0 0 -0.171714 0.702172 15.731 0.01 
19 1 2 -0.0425102 -0.101835 0.148752 0.150803 -0.0296976 -0.891888 0 0 0 -0.171714 0.702172 15.731 0.01 
20 1 2 -0.0427356 -0.101479 0.157742 0.151503 -0.0316999 -0.891791 0 0 0 -0.171714 0.702172 15.731 0.01 
21 1 3 -0.036641 -0.0281893 0.0632943 0.14876 0.166382 -1.2987 0 0 0 6.43621 -4.21346 -0.630173 0.01 
22 1 3 -0.0379336 -0.0292372 0.0721391 0.110832 0.11027 -1.31089 0 0 0 6.43621 -4.21346 -0.630173 0.01 
23 1 3 -0.0392262 -0.0302851 0.080984 0.0729046 0.054157 -1.32308 0 0 0 6.43621 -4.21346 -0.630173 0.01 
24 1 3 -0.0405188 -0.031333 0.0898288 0.0349768 -0.00195575 -1.33527 0 0 0 6.43621 -4.21346 -0.630173 0.01 
25 1 3 -0.0418113 -0.032381 0.0986736 -0.00295097 -0.0580685 -1.34746 0 0 0 6.43621 -4.21346 -0.630173 0.01 
26 1 3 -0.0431039 -0.0334289 0.107518 -0.0408787 -0.114181 -1.35965 0 0 0 6.43621 -4.21346 -0.630173 0.01 
27 1 3 -0.0443965 -0.0344768 0.116363 -0.0788065 -0.170294 -1.37185 0 0 0 6.43621 -4.21346 -0.630173 0.01 
28 1 3 -0.0456891 -0.0355247 0.125208 -0.116734 -0.226407 -1.38404 0 0 0 6.43621 -4.21346 -0.630173 0.01 
29 1 3 -0.0469816 -0.0365727 0.134053 -0.154662 -0.282519 -1.39623 0 0 0 6.43621 -4.21346 -0.630173 0.01 
30 1 3 -0.0482742 -0.0376206 0.142898 -0.19259 -0.338632 -1.40842 0 0 0 6.43621 -4.21346 -0.630173 0.01 
31 1 4 -0.0922189 0.110019 0.0146855 0.120319 -0.0376616 0.139109 0 0 0 -0.942912 -1.24316 -3.92077 0.01 
32 1 4 -0.0922257 0.110084 0.0236853 0.109386 -0.029149 0.13904 0 0 0 -0.942912 -1.24316 -3.92077 0.01 
33 1 4 -0.0922324 0.110149 0.0326851 0.0984522 -0.0206364 0.13897 0 0 0 -0.942912 -1.24316 -3.92077 0.01 
34 1 4 -0.0922392 0.110214 0.0416848 0.0875189 -0.0121238 0.1389 0 0 0 -0.942912 -1.24316 -3.92077 0.01 
35 1 4 -0.092246 0.110279 0.0506846 0.0765855 -0.00361125 0.138831 0 0 0 -0.942912 -1.24316 -3.92077 0.01 
36 1 4 -0.0922528 0.110344 0.0596844 0.0656522 0.00490134 0.138761 0 0 0 -0.942912 -1.24316 -3.92077 0.01 
37 1 4 -0.0922596 0.110409 0.0686841 0.0547188 0.0134139 0.138691 0 0 0 -0.942912 -1.24316 -3.92077 0.01 
38 1 4 -0.0922664 0.110474 0.0776839 0.0437855 0.0219265 0.138621 0 0 0 -0.942912 -1.24316 -3.92077 0.01 
39 1 4 -0.0922732 0.110539 0.0866836 0.0328521 0.0304391 0.138552 0 0 0 -0.942912 -1.24316 -3.92077 0.01 
40 1 4 -0.0922799 0.110604 0.0956834 0.0219188 0.0389517 0.138482 0 0 0 -0.942912 -1.24316 -3.92077 0.01 
41 1 5 0.0770366 -0.134942 0.0597209 -0.070588 -0.107929 -1.33938 0 0 0 -1.99774 3.77385 0.932307 0.01 
42 1 5 0.0776165 -0.133972 0.0686496 -0.0377966 -0.089551 -1.34351 0 0 0 -1.99774 3.77385 0.932307 0.01 
43 1 5 0.0781964 -0.133002 0.0775784 -0.00500526 -0.071173 -1.34763 0 0 0 -1.99774 3.77385 0.932307 0.01 
44 1 5 0.0787764 -0.132032 0.0865071 0.0277861 -0.052795 -1.35176 0 0 0 -1.99774 3.77385 0.932307 0.01 
45 1 5 0.0793563 -0.131061 0.0954359 0.0605775 -0.034417 -1.35589 0 0 0 -1.99774 3.77385 0.932307 0.01 
46 1 5 0.0799362 -0.130091 0.104365 0.0933689 -0.016039 -1.36001 0 0 0 -1.99774 3.77385 0.932307 0.01 
47 1 5 0.0805161 -0.129121 0.113293 0.12616 0.00233903 -1.36414 0 0 0 -1.99774 3.77385 0.932307 0.01 
48 1 5 0.081096 -0.128151 0.122222 0.158952 0.020717 -1.36827 0 0 0 -1.99774 3.77385 0.932307 0.01 
49 1 5 0.0816759 -0.127181 0.131151 0.191743 0.039095 -1.37239 0 0 0 -1.99774 3.77385 0.932307 0.01 
50 1 5 0.0822559 -0.126211 0.14008 0.224534 0.057473 -1.37652 0 0 0 -1.99774 3.77385 0.932307 0.01 
51 1 6 0.174759 -0.0356284 0.032887 0.0877404 0.191979 -1.62959 0 0 0 1.13258 -4.12113 -0.0159734 0.01 
52 1 6 0.174038 -0.0365498 0.0418107 0.0509502 0.181884 -1.6336 0 0 0 1.13258 -4.12113 -0.0159734 0.01 
53 1 6 0.173317 -0.0374711 0.0507343 0.0141599 0.171788 -1.63762 0 0 0 1.13258 -4.12113 -0.0159734 0.01 
54 1 6 0.172597 -0.0383925 0.059658 -0.0226304 0.161693 -1.64163 0 0 0 1.13258 -4.12113 -0.0159734 0.01 
55 1 6 0.171876 -0.0393139 0.0685816 -0.0594206 0.151598 -1.64564 0 0 0 1.13258 -4.12113 -0.0159734 0.01 
56 1 6 0.171155 -0.0402352 0.0775053 -0.0962109 0.141503 -1.64966 0 0 0 1.13258 -4.12113 -0.0159734 0.01 
57 1 6 0.170434 -0.0411566 0.086429 -0.133001 0.131407 -1.65367 0 0 0 1.13258 -4.12113 -0.0159734 0.01 
58 1 6 0.169713 -0.0420779 0.0953526 -0.169791 0.121312 -1.65769 0 0 0 1.13258 -4.12113 -0.0159734 0.01 
59 1 6 0.168993 -0.0429993 0.104276 -0.206582 0.111217 -1.6617 0 0 0 1.13258 -4.12113 -0.0159734 0.01 
60 1 6 0.168272 -0.0439206 0.1132 -0.243372 0.101121 -1.66571 0 0 0 1.13258 -4.12113 -0.0159734 0.01 
61 1 7 -0.0371502 0.217847 0.0328323 0.012731 0.042138 -1.95283 0 0 0 0.767468 -0.689238 0.557371 0.01 
62 1 7 -0.0373352 0.2176 0.041827 0.00666963 0.0351318 -1.95315 0 0 0 0.767468 -0.689238 0.557371 0.01 
63 1 7 -0.0375201 0.217352 0.0508216 0.000608269 0.0281255 -1.95346 0 0 0 0.767468 -0.689238 0.557371 0.01 
64 1 7 -0.0377051 0.217104 0.0598163 -0.00545309 0.0211193 -1.95378 0 0 0 0.767468 -0.689238 0.557371 0.01 
65 1 7 -0.03789 0.216856 0.068811 -0.0115144 0.0141131 -1.9541 0 0 0 0.767468 -0.689238 0.557371 0.01 
66 1 7 -0.038075 0.216608 0.0778057 -0.0175758 0.00710688 -1.95442 0 0 0 0.767468 -0.689238 0.557371 0.01 
67 1 7 -0.03826 0.216361 0.0868004 -0.0236372 0.000100652 -1.95473 0 0 0 0.767468 -0.689238 0.557371 0.01 
68 1 7 -0.0384449 0.216113 0.0957951 -0.0296985 -0.00690557 -1.95505 0 0 0 0.767468 -0.689238 0.557371 0.01 
69 1 7 -0.0386299 0.215865 0.10479 -0.0357599 -0.0139118 -1.95537 0 0 0 0.767468 -0.689238 0.557371 0.01 
70 1 7 -0.0388148 0.215617 0.113784 -0.0418212 -0.020918 -1.95569 0 0 0 0.767468 -0.689238 0.557371 0.01 
71 1 8 0.122601 -0.134677 0.110766 0.0767041 0.104218 0.013108 0 0 0 -0.774515 0.771402 -9.25566 0.01 
72 1 8 0.123918 -0.134606 0.119669 0.0842305 0.0989254 0.0120371 0 0 0 -0.774515 0.771402 -9.25566 0.01 
73 1 8 0.125235 -0.134535 0.128572 0.0917569 0.0936332 0.0109662 0 0 0 -0.774515 0.771402 -9.25566 0.01 
74 1 8 0.126551 -0.134463 0.137474 0.0992833 0.0883411 0.00989537 0 0 0 -0.774515 0.771402 -9.25566 0.01 
75 1 8 0.127868 -0.134392 0.146377 0.10681 0.0830489 0.00882449 0 0 0 -0.774515 0.771402 -9.25566 0.01 
76 1 8 0.129185 -0.134321 0.15528 0.114336 0.0777568 0.00775361 0 0 0 -0.774515 0.771402 -9.25566 0.01 
77 1 8 0.130502 -0.13425 0.164183 0.121862 0.0724646 0.00668273 0 0 0 -0.774515 0.771402 -9.25566 0.01 
78 1 8 0.131818 -0.134179 0.173086 0.129389 0.0671724 0.00561185 0 0 0 -0.774515 0.771402 -9.25566 0.01 
79 1 8 0.133135 -0.134108 0.181989 0.136915 0.0618803 0.00454097 0 0 0 -0.774515 0.771402 -9.25566 0.01 
80 1 8 0.134452 -0.134036 0.190892 0.144442 0.0565881 0.00347009 -1.74885 -0.363649 0.919266 -0.774515 0.771402 -9.25566 0.01 
81 1 9 -0.104212 0.0213569 0.168733 -0.0822111 -0.0297429 -2.06783 0 0 0 -0.492494 0.990258 -1.47468 0.01 
82 1 9 -0.104113 0.021397 0.177732 -0.0732402 -0.0254569 -2.06795 0 0 0 -0.492494 0.990258 -1.47468 0.01 
83 1 9 -0.104014 0.0214372 0.186731 -0.0642693 -0.021171 -2.06807 0 0 0 -0.492494 0.990258 -1.47468 0.01 
84 1 9 -0.103915 0.0214774 0.195731 -0.0552983 -0.016885 -2.06818 0 0 0 -0.492494 0.990258 -1.47468 0.01 
85 1 9 -0.103816 0.0215176 0.20473 -0.0463274 -0.012599 -2.0683 0 0 0 -0.492494 0.990258 -1.47468 0.01 
86 1 9 -0.103716 0.0215577 0.213729 -0.0373565 -0.00831298 -2.06842 0 0 0 -0.492494 0.990258 -1.47468 0.01 
87 1 9 -0.103617 0.0215979 0.222729 -0.0283855 -0.00402698 -2.06854 0 0 0 -0.492494 0.990258 -1.47468 0.01 
88 1 9 -0.103518 0.0216381 0.231728 -0.0194146 0.00025901 -2.06866 0 0 0 -0.492494 0.990258 -1.47468 0.01 
89 1 9 -0.103419 0.0216782 0.240728 -0.0104437 0.004545 -2.06877 0 0 0 -0.492494 0.990258 -1.47468 0.01 
90 1 9 -0.10332 0.0217184 0.249727 -0.00147272 0.00883099 -2.06889 0 0 0 -0.492494 0.990258 -1.47468 0.01 
91 1 10 0.0568676 0.200113 0.111189 0.0709596 0.0217112 -0.0805165 -0.164929 0.0979245 0.295326 1.65328 -0.755256 1.03107 0.01 
92 1 10 0.0560971 0.200814 0.120129 0.0634858 0.00613721 -0.0799405 0 0 0 1.65328 -0.755256 1.03107 0.01 
93 1 10 0.0553267 0.201514 0.129068 0.0560121 -0.00943681 -0.0793646 0 0 0 1.65328 -0.755256 1.03107 0.01 
94 1 10 0.0545563 0.202214 0.138008 0.0485383 -0.0250108 -0.0787887 0 0 0 1.65328 -0.755256 1.03107 0.01 
95 1 10 0.0537858 0.202915 0.146947 0.0410646 -0.0405849 -0.0782127 0 0 0 1.65328 -0.755256 1.03107 0.01 
96 1 10 0.0530154 0.203615 0.155887 0.0335909 -0.0561589 -0.0776368 0 0 0 1.65328 -0.755256 1.03107 0.01 
97 1 10 0.052245 0.204315 0.164827 0.0261171 -0.0717329 -0.0770608 0 0 0 1.65328 -0.755256 1.03107 0.01 
98 1 10 0.0514745 0.205016 0.173766 0.0186434 -0.0873069 -0.0764849 0 0 0 1.65328 -0.755256 1.03107 0.01 
99 1 10 0.0507041 0.205716 0.182706 0.0111697 -0.102881 -0.0759089 0 0 0 1.65328 -0.755256 1.03107 0.01 
100 1 10 0.0499337 0.206416 0.191645 0.00369593 -0.118455 -0.075333 0 0 0 1.65328 -0.755256 1.03107 0.01 
101 1 11 -0.192336 -0.0920387 0.0985578 -0.0896709 -0.0456421 -0.67373 0 0 0 -0.782949 -2.05118 9.60003 0.01 
102 1 11 -0.192165 -0.0923979 0.107549 -0.104665 -0.0369618 -0.673098 0 0 0 -0.782949 -2.05118 9.60003 0.01 
103 1 11 -0.191994 -0.0927571 0.11654 -0.119659 -0.0282815 -0.672467 0 0 0 -0.782949 -2.05118 9.60003 0.01 
104 1 11 -0.191823 -0.0931163 0.125531 -0.134653 -0.0196013 -0.671835 0 0 0 -0.782949 -2.05118 9.60003 0.01 
105 1 11 -0.191653 -0.0934755 0.134523 -0.149647 -0.010921 -0.671203 -0.52669 0.560816 -0.434989 -0.782949 -2.05118 9.60003 0.01 
106 1 11 -0.191482 -0.0938347 0.143514 -0.164642 -0.00224074 -0.670571 -0.468293 0.495276 -0.385578 -0.782949 -2.05118 9.60003 0.01 
107 1 11 -0.191311 -0.094194 0.152505 -0.179636 0.00643953 -0.66994 -0.35444 0.37206 -0.290838 -0.782949 -2.05118 9.60003 0.01 
108 1 11 -0.19114 -0.0945532 0.161496 -0.19463 0.0151198 -0.669308 -0.219658 0.228702 -0.17957 -0.782949 -2.05118 9.60003 0.01 
109 1 11 -0.190969 -0.0949124 0.170487 -0.209624 0.0238001 -0.668676 -0.0747576 0.0771527 -0.0608687 -0.782949 -2.05118 9.60003 0.01 
110 1 11 -0.190798 -0.0952716 0.179479 -0.224618 0.0324803 -0.668044 0.0801855 -0.0809053 -0.0497189 -0.782949 -2.05118 9.60003 0.01 
111 1 12 0.0987307 0.0504539 0.113996 -0.081253 0.00729899 0.181698 0 0 0 -0.981518 3.17824 -4.03351 0.01 
112 1 12 0.0997695 0.0516897 0.12285 -0.0481282 0.0117991 0.177183 0 0 0 -0.981518 3.17824 -4.03351 0.01 
113 1 12 0.100808 0.0529255 0.131704 -0.0150035 0.0162993 0.172669 0 0 0 -0.981518 3.17824 -4.03351 0.01 
114 1 12 0.101847 0.0541613 0.140558 0.0181213 0.0207995 0.168154 0 0 0 -0.981518 3.17824 -4.03351 0.01 
115 1 12 0.102886 0.0553971 0.149412 0.0512461 0.0252996 0.163639 0 0 0 -0.981518 3.17824 -4.03351 0.01 
116 1 12 0.103925 0.0566328 0.158266 0.0843709 0.0297998 0.159125 0 0 0 -0.981518 3.17824 -4.03351 0.01 
117 1 12 0.104964 0.0578686 0.16712 0.117496 0.0342999 0.15461 0.177957 0.0788171 -0.19209 -0.981518 3.17824 -4.03351 0.01 
118 1 12 0.106003 0.0591044 0.175974 0.15062 0.0388001 0.150095 -0.167226 -0.0245732 -0.0207413 -0.981518 3.17824 -4.03351 0.01 
119 1 12 0.107041 0.0603402 0.184828 0.183745 0.0433002 0.145581 0 0 0 -0.981518 3.17824 -4.03351 0.01 
120 1 12 0.10808 0.061576 0.193682 0.21687 0.0478004 0.141066 0 0 0 -0.981518 3.17824 -4.03351 0.01 
121 1 13 -0.0168705 0.215859 0.140968 0.0123892 0.0183537 -2.09122 0 0 0 1.92517 -0.998026 -1.09334 0.01 
122 1 13 -0.0168775 0.215845 0.149968 0.00339198 0.00103492 -2.09125 0 0 0 1.92517 -0.998026 -1.09334 0.01 
123 1 13 -0.0168845 0.215832 0.158968 -0.00560526 -0.0162839 -2.09129 0 0 0 1.92517 -0.998026 -1.09334 0.01 
124 1 13 -0.0168916 0.215818 0.167968 -0.0146025 -0.0336027 -2.09132 0 0 0 1.92517 -0.998026 -1.09334 0.01 
125 1 13 -0.0168986 0.215804 0.176968 -0.0235998 -0.0509215 -2.09135 0 0 0 1.92517 -0.998026 -1.09334 0.01 
126 1 13 -0.0169056 0.21579 0.185968 -0.032597 -0.0682403 -2.09139 0 0 0 1.92517 -0.998026 -1.09334 0.01 
127 1 13 -0.0169126 0.215777 0.194968 -0.0415942 -0.0855592 -2.09142 -0.65265 -1.21144 0.65688 1.92517 -0.998026 -1.09334 0.01 
128 1 13 -0.0169196 0.215763 0.203968 -0.0505915 -0.102878 -2.09145 0 0 0 1.92517 -0.998026 -1.09334 0.01 
129 1 13 -0.0169266 0.215749 0.212968 -0.0595887 -0.120197 -2.09149 0 0 0 1.92517 -0.998026 -1.09334 0.01 
130 1 13 -0.0169336 0.215735 0.221968 -0.068586 -0.137516 -2.09152 0 0 0 1.92517 -0.998026 -1.09334 0.01 
131 1 14 -0.0470793 0.119836 0.00979202 -0.00307617 0.0353426 -0.0705136 -0.332403 0.841137 4.14978 -1.56036 1.49459 -8.26723 0.01 
132 1 14 -0.0467156 0.120303 0.0187725 0.0142108 0.0463481 -0.0717867 0 0 0 -1.56036 1.49459 -8.26723 0.01 
133 1 14 -0.0463518 0.120771 0.027753 0.0314979 0.0573536 -0.0730599 0 0 0 -1.56036 1.49459 -8.26723 0.01 
134 1 14 -0.045988 0.121238 0.0367335 0.0487849 0.0683591 -0.074333 0 0 0 -1.56036 1.49459 -8.26723 0.01 
135 1 14 -0.0456243 0.121706 0.045714 0.0660719 0.0793646 -0.0756061 0 0 0 -1.56036 1.49459 -8.26723 0.01 
136 1 14 -0.0452605 0.122173 0.0546944 0.0833589 0.0903701 -0.0768793 0 0 0 -1.56036 1.49459 -8.26723 0.01 
137 1 14 -0.0448967 0.122641 0.0636749 0.100646 0.101376 -0.0781524 0 0 0 -1.56036 1.49459 -8.26723 0.01 
138 1 14 -0.044533 0.123108 0.0726554 0.117933 0.112381 -0.0794255 0 0 0 -1.56036 1.49459 -8.26723 0.01 
139 1 14 -0.0441692 0.123576 0.0816359 0.13522 0.123387 -0.0806987 0 0 0 -1.56036 1.49459 -8.26723 0.01 
140 1 14 -0.0438054 0.124043 0.0906164 0.152507 0.134392 -0.0819718 0 0 0 -1.56036 1.49459 -8.26723 0.01 
141 1 15 -0.0104758 -0.0692281 0.0832468 0 0 -2.17715 0 0 0 0 0 0 0.01 
142 1 15 -0.0104758 -0.0692281 0.0922468 0 0 -2.17715 0 0 0 0 0 0 0.01 
143 1 15 -0.0104758 -0.0692281 0.101247 0 0 -2.17715 0 0 0 0 0 0 0.01 
144 1 15 -0.0104758 -0.0692281 0.110247 0 0 -2.17715 0 0 0 0 0 0 0.01 
145 1 15 -0.0104758 -0.0692281 0.119247 0 0 -2.17715 0 0 0 0 0 0 0.01 
146 1 15 -0.0104758 -0.0692281 0.128247 0 0 -2.17715 0 0 0 0 0 0 0.01 
147 1 15 -0.0104758 -0.0692281 0.137247 0 0 -2.17715 0 0 0 0 0 0 0.01 
148 1 15 -0.0104758 -0.0692281 0.146247 0 0 -2.17715 0 0 0 0 0 0 0.01 
149 1 15 -0.0104758 -0.0692281 0.155247 0 0 -2.17715 0 0 0 0 0 0 0.01 
150 1 15 -0.0104758 -0.0692281 0.164247 0 0 -2.17715 0 0 0 0 0 0 0.01 
151 1 16 -0.0374202 0.179103 0.0544485 0.0324179 -0.0117774 -1.13516 0 0 0 -1.01867 -0.345826 -0.596008 0.01 
152 1 16 -0.0377268 0.178964 0.0634422 0.0292247 -0.00243304 -1.13513 0 0 0 -1.01867 -0.345826 -0.596008 0.01 
153 1 16 -0.0380333 0.178824 0.072436 0.0260315 0.0069113 -1.13509 0 0 0 -1.01867 -0.345826 -0.596008 0.01 
154 1 16 -0.0383399 0.178685 0.0814297 0.0228383 0.0162557 -1.13506 0 0 0 -1.01867 -0.345826 -0.596008 0.01 
155 1 16 -0.0386464 0.178546 0.0904234 0.019645 0.0256 -1.13502 -0.00257647 0.00152974 0.00175418 -1.01867 -0.345826 -0.596008 0.01 
156 1 16 -0.038953 0.178407 0.0994171 0.0164518 0.0349444 -1.13499 0 0 0 -1.01867 -0.345826 -0.596008 0.01 
157 1 16 -0.0392595 0.178268 0.108411 0.0132586 0.0442887 -1.13495 0 0 0 -1.01867 -0.345826 -0.596008 0.01 
158 1 16 -0.0395661 0.178129 0.117404 0.0100654 0.053633 -1.13491 0 0 0 -1.01867 -0.345826 -0.596008 0.01 
159 1 16 -0.0398726 0.177989 0.126398 0.00687216 0.0629774 -1.13488 0 0 0 -1.01867 -0.345826 -0.596008 0.01 
160 1 16 -0.0401792 0.17785 0.135392 0.00367894 0.0723217 -1.13484 0 0 0 -1.01867 -0.345826 -0.596008 0.01 
161 1 17 0.072301 0.0928589 0.0114577 -0.0178765 0.0209787 -0.0800234 0 0 0 1.00554 0.710285 0.313675 0.01 
162 1 17 0.0724404 0.0926056 0.0204531 -0.0114077 0.0119772 -0.0803772 0 0 0 1.00554 0.710285 0.313675 0.01 
163 1 17 0.0725799 0.0923523 0.0294484 -0.00493903 0.00297578 -0.080731 0 0 0 1.00554 0.710285 0.313675 0.01 
164 1 17 0.0727194 0.092099 0.0384438 0.00152968 -0.00602566 -0.0810847 0 0 0 1.00554 0.710285 0.313675 0.01 
165 1 17 0.0728588 0.0918457 0.0474391 0.0079984 -0.0150271 -0.0814385 0 0 0 1.00554 0.710285 0.313675 0.01 
166 1 17 0.0729983 0.0915924 0.0564345 0.0144671 -0.0240285 -0.0817923 0 0 0 1.00554 0.710285 0.313675 0.01 
167 1 17 0.0731378 0.0913391 0.0654298 0.0209358 -0.03303 -0.082146 0 0 0 1.00554 0.710285 0.313675 0.01 
168 1 17 0.0732772 0.0910858 0.0744252 0.0274045 -0.0420314 -0.0824998 0 0 0 1.00554 0.710285 0.313675 0.01 
169 1 17 0.0734167 0.0908325 0.0834205 0.0338733 -0.0510329 -0.0828535 0 0 0 1.00554 0.710285 0.313675 0.01 
170 1 17 0.0735562 0.0905792 0.0924159 0.040342 -0.0600343 -0.0832073 0 0 0 1.00554 0.710285 0.313675 0.01 
171 1 18 -0.241468 -0.0464646 0.154167 -0.0797995 -0.285548 -1.34828 0 0 0 -3.60071 -0.18833 -5.3467 0.01 
172 1 18 -0.241196 -0.0451 0.163058 -0.0741777 -0.254984 -1.35314 0 0 0 -3.60071 -0.18833 -5.3467 0.01 
173 1 18 -0.240925 -0.0437353 0.17195 -0.068556 -0.224421 -1.358 0 0 0 -3.60071 -0.18833 -5.3467 0.01 
174 1 18 -0.240653 -0.0423707 0.180842 -0.0629342 -0.193857 -1.36287 0 0 0 -3.60071 -0.18833 -5.3467 0.01 
175 1 18 -0.240381 -0.041006 0.189734 -0.0573124 -0.163293 -1.36773 0 0 0 -3.60071 -0.18833 -5.3467 0.01 
176 1 18 -0.240109 -0.0396414 0.198626 -0.0516906 -0.13273 -1.37259 0 0 0 -3.60071 -0.18833 -5.3467 0.01 
177 1 18 -0.239838 -0.0382767 0.207517 -0.0460688 -0.102166 -1.37745 0 0 0 -3.60071 -0.18833 -5.3467 0.01 
178 1 18 -0.239566 -0.0369121 0.216409 -0.040447 -0.0716024 -1.38232 0 0 0 -3.60071 -0.18833 -5.3467 0.01 
179 1 18 -0.239294 -0.0355474 0.225301 -0.0348253 -0.0410387 -1.38718 0 0 0 -3.60071 -0.18833 -5.3467 0.01 
180 1 18 -0.239022 -0.0341828 0.234193 -0.0292035 -0.0104751 -1.39204 0 0 0 -3.60071 -0.18833 -5.3467 0.01 
181 1 19 0.0015881 0.166313 0.109923 -0.0977541 0.147857 -0.334034 0 0 0 3.96256 6.40365 1.37505 0.01 
182 1 19 0.00246894 0.165826 0.118866 -0.0398132 0.113629 -0.341604 0 0 0 3.96256 6.40365 1.37505 0.01 
183 1 19 0.00334977 0.165339 0.12781 0.0181278 0.0794011 -0.349174 0 0 0 3.96256 6.40365 1.37505 0.01 
184 1 19 0.00423061 0.164852 0.136753 0.0760687 0.0451729 -0.356745 0 0 0 3.96256 6.40365 1.37505 0.01 
185 1 19 0.00511144 0.164365 0.145697 0.13401 0.0109448 -0.364315 0 0 0 3.96256 6.40365 1.37505 0.01 
186 1 19 0.00599228 0.163878 0.154641 0.191951 -0.0232834 -0.371885 0 0 0 3.96256 6.40365 1.37505 0.01 
187 1 19 0.00687312 0.163391 0.163584 0.249891 -0.0575115 -0.379455 0 0 0 3.96256 6.40365 1.37505 0.01 
188 1 19 0.00775395 0.162904 0.172528 0.307832 -0.0917396 -0.387025 0 0 0 3.96256 6.40365 1.37505 0.01 
189 1 19 0.00863479 0.162417 0.181471 0.365773 -0.125968 -0.394596 0 0 0 3.96256 6.40365 1.37505 0.01 
190 1 19 0.00951563 0.16193 0.190415 0.423714 -0.160196 -0.402166 0 0 0 3.96256 6.40365 1.37505 0.01 
191 1 20 -0.00719879 0.187587 0.00992933 0.0038743 0.0133627 -0.0299318 0.0100029 0.0290865 1.02756 -1.47954 0.413375 7.8452 0.01 
192 1 20 -0.00710462 0.188114 0.0189134 0.00345141 0.0273937 -0.0307509 0 0 0 -1.47954 0.413375 7.8452 0.01 
193 1 20 -0.00701045 0.188642 0.0278974 0.00302851 0.0414247 -0.03157 0 0 0 -1.47954 0.413375 7.8452 0.01 
194 1 20 -0.00691629 0.189169 0.0368815 0.00260561 0.0554558 -0.032389 0 0 0 -1.47954 0.413375 7.8452 0.01 
195 1 20 -0.00682212 0.189696 0.0458655 0.00218271 0.0694868 -0.0332081 0 0 0 -1.47954 0.413375 7.8452 0.01 
196 1 20 -0.00672795 0.190224 0.0548496 0.00175981 0.0835178 -0.0340272 0 0 0 -1.47954 0.413375 7.8452 0.01 
197 1 20 -0.00663378 0.190751 0.0638336 0.00133691 0.0975488 -0.0348463 0 0 0 -1.47954 0.413375 7.8452 0.01 
198 1 20 -0.00653961 0.191278 0.0728177 0.000914015 0.11158 -0.0356653 0 0 0 -1.47954 0.413375 7.8452 0.01 
199 1 20 -0.00644544 0.191806 0.0818017 0.000491117 0.125611 -0.0364844 0 0 0 -1.47954 0.413375 7.8452 0.01 
200 1 20 -0.00635127 0.192333 0.0907857 6.82187e-05 0.139642 -0.0373035 0 0 0 -1.47954 0.413375 7.8452 0.01 
201 1 21 0.0187246 0.0043608 0.00985958 -0.0356439 0.0316552 0.00326023 0.0372115 -0.122379 1.30964 -2.15626 -2.44301 -8.15159 0.01 
202 1 21 0.018013 0.00523845 0.0187884 -0.0503028 0.0567084 -0.000370582 0 0 0 -2.15626 -2.44301 -8.15159 0.01 
203 1 21 0.0173014 0.0061161 0.0277172 -0.0649618 0.0817617 -0.00400139 0 0 0 -2.15626 -2.44301 -8.15159 0.01 
204 1 21 0.0165899 0.00699374 0.036646 -0.0796207 0.106815 -0.0076322 -0.0581231 -0.0210081 0.0840936 -2.15626 -2.44301 -8.15159 0.01 
205 1 21 0.0158783 0.00787139 0.0455748 -0.0942796 0.131868 -0.011263 0.303388 0.243763 0.0981031 -2.15626 -2.44301 -8.15159 0.01 
206 1 21 0.0151667 0.00874903 0.0545036 -0.108939 0.156921 -0.0148938 0.118563 0.00235187 -0.00285754 -2.15626 -2.44301 -8.15159 0.01 
207 1 21 0.0144551 0.00962668 0.0634324 -0.123597 0.181975 -0.0185246 -2.97855 1.39531 -9.22639 -2.15626 -2.44301 -8.15159 0.01 
208 1 21 0.0137436 0.0105043 0.0723611 -0.138256 0.207028 -0.0221555 0 0 0 -2.15626 -2.44301 -8.15159 0.01 
209 1 21 0.013032 0.011382 0.0812899 -0.152915 0.232081 -0.0257863 0 0 0 -2.15626 -2.44301 -8.15159 0.01 
210 1 21 0.0123204 0.0122596 0.0902187 -0.167574 0.257134 -0.0294171 -7.68394e-07 -3.20982e-07 -1.50627e-05 -2.15626 -2.44301 -8.15159 0.01 
211 1 22 0.00135873 0.206324 0.109505 -0.132494 0.306942 0.206193 2.19874 -1.36508 -0.402231 6.49263 0.166487 4.4236 0.01 
212 1 22 0.00136867 0.204842 0.118383 -0.12446 0.24935 0.196568 0 0 0 6.49263 0.166487 4.4236 0.01 
213 1 22 0.0013786 0.203359 0.12726 -0.116425 0.191758 0.186942 0 0 0 6.49263 0.166487 4.4236 0.01 
214 1 22 0.00138853 0.201877 0.136137 -0.10839 0.134167 0.177317 0 0 0 6.49263 0.166487 4.4236 0.01 
215 1 22 0.00139846 0.200395 0.145014 -0.100355 0.0765749 0.167692 0 0 0 6.49263 0.166487 4.4236 0.01 
216 1 22 0.00140839 0.198912 0.153891 -0.09232 0.0189832 0.158066 0 0 0 6.49263 0.166487 4.4236 0.01 
217 1 22 0.00141832 0.19743 0.162768 -0.0842852 -0.0386085 0.148441 0 0 0 6.49263 0.166487 4.4236 0.01 
218 1 22 0.00142826 0.195948 0.171645 -0.0762503 -0.0962002 0.138815 0 0 0 6.49263 0.166487 4.4236 0.01 
219 1 22 0.00143819 0.194466 0.180522 -0.0682154 -0.153792 0.12919 0 0 0 6.49263 0.166487 4.4236 0.01 
220 1 22 0.00144812 0.192983 0.189399 -0.0601805 -0.211384 0.119564 0 0 0 6.49263 0.166487 4.4236 0.01 
221 1 23 0.214349 0.0539113 0.146179 0 0 -2.17715 0 0 0 0 0 0 0.01 
222 1 23 0.214349 0.0539113 0.155179 0 0 -2.17715 0 0 0 0 0 0 0.01 
223 1 23 0.214349 0.0539113 0.164179 0 0 -2.17715 0 0 0 0 0 0 0.01 
224 1 23 0.214349 0.0539113 0.173179 0 0 -2.17715 0 0 0 0 0 0 0.01 
225 1 23 0.214349 0.0539113 0.182179 0 0 -2.17715 0 0 0 0 0 0 0.01 
226 1 23 0.214349 0.0539113 0.191179 0 0 -2.17715 0 0 0 0 0 0 0.01 
227 1 23 0.214349 0.0539113 0.200179 0 0 -2.17715 0 0 0 0 0 0 0.01 
228 1 23 0.214349 0.0539113 0.209179 0 0 -2.17715 0 0 0 0 0 0 0.01 
229 1 23 0.214349 0.0539113 0.218179 0 0 -2.17715 0 0 0 0 0 0 0.01 
230 1 23 0.214349 0.0539113 0.227179 0 0 -2.17715 0 0 0 0 0 0 0.01 
231 1 24 0.158121 0.0240522 0.00989325 0.0135976 -0.0463401 0.00291472 0.0285692 -0.106404 0.864964 4.63934 1.36705 2.01711 0.01 
232 1 24 0.15857 0.0224127 0.0187313 0.0289865 -0.0864384 -0.00530412 0 0 0 4.63934 1.36705 2.01711 0.01 
233 1 24 0.159018 0.0207733 0.0275694 0.0443755 -0.126537 -0.013523 0 0 0 4.63934 1.36705 2.01711 0.01 
234 1 24 0.159466 0.0191339 0.0364074 0.0597644 -0.166635 -0.0217418 0 0 0 4.63934 1.36705 2.01711 0.01 
235 1 24 0.159915 0.0174945 0.0452455 0.0751533 -0.206733 -0.0299606 0 0 0 4.63934 1.36705 2.01711 0.01 
236 1 24 0.160363 0.015855 0.0540835 0.0905423 -0.246832 -0.0381795 0 0 0 4.63934 1.36705 2.01711 0.01 
237 1 24 0.160812 0.0142156 0.0629216 0.105931 -0.28693 -0.0463983 0 0 0 4.63934 1.36705 2.01711 0.01 
238 1 24 0.16126 0.0125762 0.0717596 0.12132 -0.327028 -0.0546172 0 0 0 4.63934 1.36705 2.01711 0.01 
239 1 24 0.161709 0.0109368 0.0805977 0.136709 -0.367127 -0.062836 0 0 0 4.63934 1.36705 2.01711 0.01 
240 1 24 0.162157 0.00929735 0.0894358 0.152098 -0.407225 -0.0710548 0 0 0 4.63934 1.36705 2.01711 0.01 
241 1 25 0.135159 -0.17408 0.10964 -0.0164758 -0.00344529 0.183079 0.0927203 0.021539 2.78846 -0.33136 1.44654 -0.0079866 0.01 
242 1 25 0.135229 -0.174063 0.11864 -0.00345718 -0.000463705 0.182972 0 0 0 -0.33136 1.44654 -0.0079866 0.01 
243 1 25 0.135299 -0.174047 0.127639 0.0095614 0.00251788 0.182865 0 0 0 -0.33136 1.44654 -0.0079866 0.01 
244 1 25 0.135369 -0.17403 0.136639 0.02258 0.00549946 0.182758 0 0 0 -0.33136 1.44654 -0.0079866 0.01 
245 1 25 0.13544 -0.174013 0.145639 0.0355985 0.00848105 0.18265 0 0 0 -0.33136 1.44654 -0.0079866 0.01 
246 1 25 0.13551 -0.173997 0.154639 0.0486171 0.0114626 0.182543 0 0 0 -0.33136 1.44654 -0.0079866 0.01 
247 1 25 0.13558 -0.17398 0.163638 0.0616357 0.0144442 0.182436 0 0 0 -0.33136 1.44654 -0.0079866 0.01 
248 1 25 0.13565 -0.173964 0.172638 0.0746543 0.0174258 0.182329 0 0 0 -0.33136 1.44654 -0.0079866 0.01 
249 1 25 0.135721 -0.173947 0.181638 0.0876729 0.0204074 0.182222 0 0 0 -0.33136 1.44654 -0.0079866 0.01 
250 1 25 0.135791 -0.17393 0.190637 0.100691 0.023389 0.182115 0 0 0 -0.33136 1.44654 -0.0079866 0.01 
251 1 26 -0.00927266 -0.170224 0.0187321 0.0198303 -0.0243552 0.344396 0 0 0 1.83896 1.42252 1.0772 0.01 
252 1 26 -0.00874345 -0.170848 0.0276949 0.0332519 -0.0402673 0.342497 0 0 0 1.83896 1.42252 1.0772 0.01 
253 1 26 -0.00821423 -0.171472 0.0366576 0.0466736 -0.0561793 0.340597 0 0 0 1.83896 1.42252 1.0772 0.01 
254 1 26 -0.00768502 -0.172095 0.0456204 0.0600952 -0.0720914 0.338697 0 0 0 1.83896 1.42252 1.0772 0.01 
255 1 26 -0.00715581 -0.172719 0.0545831 0.0735169 -0.0880035 0.336797 0 0 0 1.83896 1.42252 1.0772 0.01 
256 1 26 -0.0066266 -0.173343 0.0635459 0.0869386 -0.103916 0.334897 0 0 0 1.83896 1.42252 1.0772 0.01 
257 1 26 -0.00609739 -0.173967 0.0725086 0.10036 -0.119828 0.332997 0 0 0 1.83896 1.42252 1.0772 0.01 
258 1 26 -0.00556817 -0.17459 0.0814713 0.113782 -0.13574 0.331097 0 0 0 1.83896 1.42252 1.0772 0.01 
259 1 26 -0.00503896 -0.175214 0.0904341 0.127204 -0.151652 0.329197 0 0 0 1.83896 1.42252 1.0772 0.01 
260 1 26 -0.00450975 -0.175838 0.0993968 0.140625 -0.167564 0.327297 0 0 0 1.83896 1.42252 1.0772 0.01 
261 1 27 -0.144244 0.154727 0.104172 0.421534 0.611312 0.651719 0.46266 -3.14834 10.3964 12.2953 -4.9453 -14.2929 0.01 
262 1 27 -0.144391 0.154005 0.113142 0.366862 0.503118 0.642124 0 0 0 12.2953 -4.9453 -14.2929 0.01 
263 1 27 -0.144537 0.153284 0.122112 0.312191 0.394923 0.632529 0 0 0 12.2953 -4.9453 -14.2929 0.01 
264 1 27 -0.144684 0.152562 0.131082 0.25752 0.286729 0.622933 0 0 0 12.2953 -4.9453 -14.2929 0.01 
265 1 27 -0.14483 0.151841 0.140052 0.202849 0.178535 0.613338 0 0 0 12.2953 -4.9453 -14.2929 0.01 
266 1 27 -0.144976 0.151119 0.149022 0.148177 0.0703404 0.603743 0 0 0 12.2953 -4.9453 -14.2929 0.01 
267 1 27 -0.145123 0.150398 0.157991 0.0935062 -0.0378539 0.594148 0 0 0 12.2953 -4.9453 -14.2929 0.01 
268 1 27 -0.145269 0.149676 0.166961 0.0388349 -0.146048 0.584552 0 0 0 12.2953 -4.9453 -14.2929 0.01 
269 1 27 -0.145415 0.148955 0.175931 -0.0158363 -0.254243 0.574957 0 0 0 12.2953 -4.9453 -14.2929 0.01 
270 1 27 -0.145562 0.148233 0.184901 -0.0705075 -0.362437 0.565362 0 0 0 12.2953 -4.9453 -14.2929 0.01 
271 1 28 0.014187 -0.16815 0.107619 0.00693715 0.0230666 0.131589 0 0 0 -5.29642 -4.54634 -1.84974 0.01 
272 1 28 0.013294 -0.167105 0.116514 -0.0315668 0.0718269 0.121994 0 0 0 -5.29642 -4.54634 -1.84974 0.01 
273 1 28 0.012401 -0.16606 0.125408 -0.0700707 0.120587 0.112399 0 0 0 -5.29642 -4.54634 -1.84974 0.01 
274 1 28 0.011508 -0.165015 0.134303 -0.108575 0.169347 0.102804 0 0 0 -5.29642 -4.54634 -1.84974 0.01 
275 1 28 0.010615 -0.163969 0.143197 -0.147079 0.218108 0.0932095 0 0 0 -5.29642 -4.54634 -1.84974 0.01 
276 1 28 0.00972199 -0.162924 0.152091 -0.185583 0.266868 0.0836146 0 0 0 -5.29642 -4.54634 -1.84974 0.01 
277 1 28 0.00882899 -0.161879 0.160986 -0.224086 0.315628 0.0740196 0 0 0 -5.29642 -4.54634 -1.84974 0.01 
278 1 28 0.00793598 -0.160834 0.16988 -0.26259 0.364389 0.0644247 0 0 0 -5.29642 -4.54634 -1.84974 0.01 
279 1 28 0.00704298 -0.159789 0.178775 -0.301094 0.413149 0.0548297 0 0 0 -5.29642 -4.54634 -1.84974 0.01 
280 1 28 0.00614997 -0.158744 0.187669 -0.339598 0.461909 0.0452348 0 0 0 -5.29642 -4.54634 -1.84974 0.01 