ITEM: TIMESTEP
11000
ITEM: NUMBER OF ATOMS
6300
ITEM: BOX BOUNDS mm mm mm
-0.3 0.3
-0.3 0.3
0 0.5
ITEM: ATOMS id type mol x y z vx vy vz fx fy fz omegax omegay omegaz radius 
1 1 1 -0.11585 -0.128271 0.105802 -0.00590569 0.0400999 -0.0139177 0 0 0 -2.7445 -2.24594 1.47132 0.01 
2 1 1 -0.116083 -0.127997 0.114794 -0.0265062 0.0644371 -0.015194 0 0 0 -2.7445 -2.24594 1.47132 0.01 
3 1 1 -0.116317 -0.127723 0.123787 -0.0471067 0.0887743 -0.0164704 0 0 0 -2.7445 -2.24594 1.47132 0.01 
4 1 1 -0.11655 -0.127449 0.13278 -0.0677072 0.113112 -0.0177468 0 0 0 -2.7445 -2.24594 1.47132 0.01 
5 1 1 -0.116783 -0.127175 0.141773 -0.0883076 0.137449 -0.0190231 0 0 0 -2.7445 -2.24594 1.47132 0.01 
6 1 1 -0.117017 -0.126901 0.150766 -0.108908 0.161786 -0.0202995 0 0 0 -2.7445 -2.24594 1.47132 0.01 
7 1 1 -0.11725 -0.126627 0.159758 -0.129509 0.186123 -0.0215759 0 0 0 -2.7445 -2.24594 1.47132 0.01 
8 1 1 -0.117484 -0.126353 0.168751 -0.150109 0.210461 -0.0228522 0 0 0 -2.7445 -2.24594 1.47132 0.01 
9 1 1 -0.117717 -0.126079 0.177744 -0.17071 0.234798 -0.0241286 0 0 0 -2.7445 -2.24594 1.47132 0.01 
10 1 1 -0.117951 -0.125805 0.186737 -0.19131 0.259135 -0.025405 0 0 0 -2.7445 -2.24594 1.47132 0.01 
11 1 2 -0.042053 -0.104642 0.0857937 0.130675 -0.00230381 -0.854947 0 0 0 -0.149457 0.689637 15.508 0.01 
12 1 2 -0.0422791 -0.104265 0.094783 0.131035 -0.00446739 -0.854847 0 0 0 -0.149457 0.689637 15.508 0.01 
13 1 2 -0.0425053 -0.103889 0.103772 0.131395 -0.00663098 -0.854747 0 0 0 -0.149457 0.689637 15.508 0.01 
14 1 2 -0.0427314 -0.103512 0.112762 0.131756 -0.00879457 -0.854648 0 0 0 -0.149457 0.689637 15.508 0.01 
15 1 2 -0.0429576 -0.103136 0.121751 0.132116 -0.0109582 -0.854548 0 0 0 -0.149457 0.689637 15.508 0.01 
16 1 2 -0.0431837 -0.102759 0.13074 0.132476 -0.0131217 -0.854448 0 0 0 -0.149457 0.689637 15.508 0.01 
17 1 2 -0.0434099 -0.102383 0.139729 0.132837 -0.0152853 -0.854349 0 0 0 -0.149457 0.689637 15.508 0.01 
18 1 2 -0.043636 -0.102006 0.148719 0.133197 -0.0174489 -0.854249 0 0 0 -0.149457 0.689637 15.508 0.01 
19 1 2 -0.0438622 -0.10163 0.157708 0.133557 -0.0196125 -0.854149 0 0 0 -0.149457 0.689637 15.508 0.01 
20 1 2 -0.0440883 -0.101253 0.166697 0.133918 -0.0217761 -0.85405 0 0 0 -0.149457 0.689637 15.508 0.01 
21 1 3 -0.0381431 -0.0298649 0.0759076 0.151494 0.168504 -1.224 0 0 0 6.39414 -4.27549 -0.640929 0.01 
22 1 3 -0.0390532 -0.0303491 0.0848483 0.112958 0.111919 -1.23098 0 0 0 6.39414 -4.27549 -0.640929 0.01 
23 1 3 -0.0399633 -0.0308333 0.0937891 0.0744216 0.0553333 -1.23797 0 0 0 6.39414 -4.27549 -0.640929 0.01 
24 1 3 -0.0408733 -0.0313174 0.10273 0.0358852 -0.00125195 -1.24496 0 0 0 6.39414 -4.27549 -0.640929 0.01 
25 1 3 -0.0417834 -0.0318016 0.111671 -0.00265129 -0.0578372 -1.25194 0 0 0 6.39414 -4.27549 -0.640929 0.01 
26 1 3 -0.0426935 -0.0322857 0.120611 -0.0411877 -0.114422 -1.25893 0 0 0 6.39414 -4.27549 -0.640929 0.01 
27 1 3 -0.0436036 -0.0327699 0.129552 -0.0797242 -0.171008 -1.26592 0 0 0 6.39414 -4.27549 -0.640929 0.01 
28 1 3 -0.0445136 -0.0332541 0.138493 -0.118261 -0.227593 -1.2729 0 0 0 6.39414 -4.27549 -0.640929 0.01 
29 1 3 -0.0454237 -0.0337382 0.147434 -0.156797 -0.284178 -1.27989 0 0 0 6.39414 -4.27549 -0.640929 0.01 
30 1 3 -0.0463338 -0.0342224 0.156374 -0.195334 -0.340764 -1.28688 0 0 0 6.39414 -4.27549 -0.640929 0.01 
31 1 4 -0.0929767 0.110318 0.0122638 0.0014186 -0.0111037 0.358202 0 0 0 -0.0208381 2.2451 -2.37384 0.01 
32 1 4 -0.0929698 0.110321 0.0212638 0.0216299 -0.0109326 0.358187 0 0 0 -0.0208381 2.2451 -2.37384 0.01 
33 1 4 -0.0929629 0.110323 0.0302638 0.0418411 -0.0107614 0.358171 0 0 0 -0.0208381 2.2451 -2.37384 0.01 
34 1 4 -0.092956 0.110325 0.0392638 0.0620524 -0.0105903 0.358156 0 0 0 -0.0208381 2.2451 -2.37384 0.01 
35 1 4 -0.092949 0.110327 0.0482638 0.0822637 -0.0104192 0.35814 0 0 0 -0.0208381 2.2451 -2.37384 0.01 
36 1 4 -0.0929421 0.11033 0.0572638 0.102475 -0.0102481 0.358124 0 0 0 -0.0208381 2.2451 -2.37384 0.01 
37 1 4 -0.0929352 0.110332 0.0662638 0.122686 -0.010077 0.358109 0 0 0 -0.0208381 2.2451 -2.37384 0.01 
38 1 4 -0.0929283 0.110334 0.0752638 0.142897 -0.00990592 0.358093 0.508354 -0.123553 -0.320514 -0.0208381 2.2451 -2.37384 0.01 
39 1 4 -0.0929213 0.110337 0.0842638 0.163109 -0.00973482 0.358078 0.961339 -0.215993 -0.603748 -0.0208381 2.2451 -2.37384 0.01 
40 1 4 -0.0929144 0.110339 0.0932638 0.18332 -0.00956371 0.358062 1.55234 -0.319596 -0.971197 -0.0208381 2.2451 -2.37384 0.01 
41 1 5 0.0776258 -0.133807 0.0730113 -0.050871 -0.117672 -1.31076 0 0 0 -2.36637 2.57344 0.064425 0.01 
42 1 5 0.0779289 -0.133036 0.0819731 -0.0278581 -0.0964451 -1.31337 0 0 0 -2.36637 2.57344 0.064425 0.01 
43 1 5 0.078232 -0.132265 0.0909349 -0.00484513 -0.0752187 -1.31597 0 0 0 -2.36637 2.57344 0.064425 0.01 
44 1 5 0.078535 -0.131494 0.0998967 0.0181678 -0.0539923 -1.31858 0 0 0 -2.36637 2.57344 0.064425 0.01 
45 1 5 0.0788381 -0.130723 0.108858 0.0411807 -0.0327659 -1.32118 0 0 0 -2.36637 2.57344 0.064425 0.01 
46 1 5 0.0791412 -0.129952 0.11782 0.0641937 -0.0115395 -1.32379 0 0 0 -2.36637 2.57344 0.064425 0.01 
47 1 5 0.0794443 -0.129181 0.126782 0.0872066 0.0096869 -1.32639 0 0 0 -2.36637 2.57344 0.064425 0.01 
48 1 5 0.0797474 -0.12841 0.135744 0.11022 0.0309133 -1.32899 0 0 0 -2.36637 2.57344 0.064425 0.01 
49 1 5 0.0800505 -0.127639 0.144706 0.133232 0.0521397 -1.3316 0 0 0 -2.36637 2.57344 0.064425 0.01 
50 1 5 0.0803535 -0.126867 0.153667 0.156245 0.0733661 -1.3342 0 0 0 -2.36637 2.57344 0.064425 0.01 
51 1 6 0.173929 -0.037581 0.0487857 0.0778991 0.201627 -1.59329 0 0 0 1.5159 -3.41499 -0.506034 0.01 
52 1 6 0.173573 -0.0383984 0.0577414 0.0469018 0.188231 -1.59575 0 0 0 1.5159 -3.41499 -0.506034 0.01 
53 1 6 0.173216 -0.0392158 0.0666971 0.0159045 0.174835 -1.5982 0 0 0 1.5159 -3.41499 -0.506034 0.01 
54 1 6 0.17286 -0.0400331 0.0756528 -0.0150928 0.16144 -1.60066 0 0 0 1.5159 -3.41499 -0.506034 0.01 
55 1 6 0.172503 -0.0408505 0.0846086 -0.04609 0.148044 -1.60312 -0.975977 0.472091 0.745638 1.5159 -3.41499 -0.506034 0.01 
56 1 6 0.172147 -0.0416679 0.0935643 -0.0770873 0.134649 -1.60557 -4.94196 2.31082 3.7641 1.5159 -3.41499 -0.506034 0.01 
57 1 6 0.171791 -0.0424852 0.10252 -0.108085 0.121253 -1.60803 0 0 0 1.5159 -3.41499 -0.506034 0.01 
58 1 6 0.171434 -0.0433026 0.111476 -0.139082 0.107857 -1.61049 0 0 0 1.5159 -3.41499 -0.506034 0.01 
59 1 6 0.171078 -0.04412 0.120431 -0.170079 0.0944617 -1.61294 0 0 0 1.5159 -3.41499 -0.506034 0.01 
60 1 6 0.170721 -0.0449374 0.129387 -0.201077 0.0810661 -1.6154 0 0 0 1.5159 -3.41499 -0.506034 0.01 
61 1 7 -0.0372481 0.217398 0.0518904 -0.00660486 0.057034 -1.84849 0 0 0 1.37088 0.0971023 0.149536 0.01 
62 1 7 -0.0373842 0.217231 0.0608878 -0.00570627 0.0446792 -1.84871 0 0 0 1.37088 0.0971023 0.149536 0.01 
63 1 7 -0.0375203 0.217064 0.0698852 -0.00480767 0.0323244 -1.84892 0 0 0 1.37088 0.0971023 0.149536 0.01 
64 1 7 -0.0376563 0.216898 0.0788827 -0.00390908 0.0199696 -1.84914 0 0 0 1.37088 0.0971023 0.149536 0.01 
65 1 7 -0.0377924 0.216731 0.0878801 -0.00301049 0.00761486 -1.84935 0 0 0 1.37088 0.0971023 0.149536 0.01 
66 1 7 -0.0379285 0.216564 0.0968775 -0.0021119 -0.00473992 -1.84957 0 0 0 1.37088 0.0971023 0.149536 0.01 
67 1 7 -0.0380645 0.216398 0.105875 -0.0012133 -0.0170947 -1.84978 0 0 0 1.37088 0.0971023 0.149536 0.01 
68 1 7 -0.0382006 0.216231 0.114872 -0.00031471 -0.0294495 -1.85 0 0 0 1.37088 0.0971023 0.149536 0.01 
69 1 7 -0.0383367 0.216064 0.12387 0.000583883 -0.0418042 -1.85021 0 0 0 1.37088 0.0971023 0.149536 0.01 
70 1 7 -0.0384727 0.215898 0.132867 0.00148248 -0.054159 -1.85043 0.403587 -0.668633 -2.85375 1.37088 0.0971023 0.149536 0.01 
71 1 8 0.122549 -0.135513 0.110027 -0.0118679 0.0717965 0.138095 0 0 0 -1.39363 5.30525 -4.2549 0.01 
72 1 8 0.123487 -0.135475 0.118978 0.0357774 0.080279 0.133066 0 0 0 -1.39363 5.30525 -4.2549 0.01 
73 1 8 0.124425 -0.135438 0.127929 0.0834227 0.0887615 0.128037 0 0 0 -1.39363 5.30525 -4.2549 0.01 
74 1 8 0.125363 -0.135401 0.13688 0.131068 0.097244 0.123008 0 0 0 -1.39363 5.30525 -4.2549 0.01 
75 1 8 0.126301 -0.135363 0.145831 0.178713 0.105726 0.117978 0 0 0 -1.39363 5.30525 -4.2549 0.01 
76 1 8 0.127239 -0.135326 0.154781 0.226359 0.114209 0.112949 0 0 0 -1.39363 5.30525 -4.2549 0.01 
77 1 8 0.128177 -0.135289 0.163732 0.274004 0.122691 0.10792 0 0 0 -1.39363 5.30525 -4.2549 0.01 
78 1 8 0.129116 -0.135252 0.172683 0.321649 0.131174 0.102891 0 0 0 -1.39363 5.30525 -4.2549 0.01 
79 1 8 0.130054 -0.135214 0.181634 0.369295 0.139656 0.0978621 0 0 0 -1.39363 5.30525 -4.2549 0.01 
80 1 8 0.130992 -0.135177 0.190585 0.41694 0.148139 0.092833 0 0 0 -1.39363 5.30525 -4.2549 0.01 
81 1 9 -0.103348 0.0216352 0.189019 0 0 -2.07905 0 0 0 0 0 0 0.01 
82 1 9 -0.103348 0.0216352 0.198019 0 0 -2.07905 0 0 0 0 0 0 0.01 
83 1 9 -0.103348 0.0216352 0.207019 0 0 -2.07905 0 0 0 0 0 0 0.01 
84 1 9 -0.103348 0.0216352 0.216019 0 0 -2.07905 0 0 0 0 0 0 0.01 
85 1 9 -0.103348 0.0216352 0.225019 0 0 -2.07905 0 0 0 0 0 0 0.01 
86 1 9 -0.103348 0.0216352 0.234019 0 0 -2.07905 0 0 0 0 0 0 0.01 
87 1 9 -0.103348 0.0216352 0.243019 0 0 -2.07905 0 0 0 0 0 0 0.01 
88 1 9 -0.103348 0.0216352 0.252019 0 0 -2.07905 0 0 0 0 0 0 0.01 
89 1 9 -0.103348 0.0216352 0.261019 0 0 -2.07905 0 0 0 0 0 0 0.01 
90 1 9 -0.103348 0.0216352 0.270019 0 0 -2.07905 0 0 0 0 0 0 0.01 
91 1 10 0.0553896 0.200278 0.11167 0.176257 -0.0841373 0.0462652 0 0 0 -0.377967 -2.16774 4.89264 0.01 
92 1 10 0.054811 0.201079 0.120615 0.15295 -0.0835872 0.0447084 0 0 0 -0.377967 -2.16774 4.89264 0.01 
93 1 10 0.0542324 0.201879 0.129561 0.129643 -0.083037 0.0431516 0 0 0 -0.377967 -2.16774 4.89264 0.01 
94 1 10 0.0536538 0.202679 0.138507 0.106335 -0.0824869 0.0415948 0 0 0 -0.377967 -2.16774 4.89264 0.01 
95 1 10 0.0530751 0.203479 0.147452 0.0830282 -0.0819367 0.0400381 -1.01257 -1.49149 -1.12091 -0.377967 -2.16774 4.89264 0.01 
96 1 10 0.0524965 0.20428 0.156398 0.0597209 -0.0813866 0.0384813 0 0 0 -0.377967 -2.16774 4.89264 0.01 
97 1 10 0.0519179 0.20508 0.165344 0.0364136 -0.0808364 0.0369245 0 0 0 -0.377967 -2.16774 4.89264 0.01 
98 1 10 0.0513392 0.20588 0.174289 0.0131063 -0.0802863 0.0353677 0 0 0 -0.377967 -2.16774 4.89264 0.01 
99 1 10 0.0507606 0.20668 0.183235 -0.0102009 -0.0797362 0.0338109 0 0 0 -0.377967 -2.16774 4.89264 0.01 
100 1 10 0.050182 0.207481 0.192181 -0.0335082 -0.079186 0.0322541 0 0 0 -0.377967 -2.16774 4.89264 0.01 
101 1 11 -0.191701 -0.0912676 0.10194 -0.0602962 -0.0805522 -0.253324 0 0 0 2.39361 1.23214 9.41696 0.01 
102 1 11 -0.191631 -0.0914474 0.110938 -0.0475156 -0.101435 -0.25384 0 0 0 2.39361 1.23214 9.41696 0.01 
103 1 11 -0.191562 -0.0916273 0.119936 -0.034735 -0.122318 -0.254356 0 0 0 2.39361 1.23214 9.41696 0.01 
104 1 11 -0.191492 -0.0918072 0.128933 -0.0219544 -0.143201 -0.254872 0 0 0 2.39361 1.23214 9.41696 0.01 
105 1 11 -0.191423 -0.091987 0.137931 -0.00917379 -0.164084 -0.255388 0 0 0 2.39361 1.23214 9.41696 0.01 
106 1 11 -0.191353 -0.0921669 0.146929 0.0036068 -0.184967 -0.255904 0 0 0 2.39361 1.23214 9.41696 0.01 
107 1 11 -0.191283 -0.0923468 0.155927 0.0163874 -0.20585 -0.256421 0 0 0 2.39361 1.23214 9.41696 0.01 
108 1 11 -0.191214 -0.0925267 0.164925 0.029168 -0.226733 -0.256937 0 0 0 2.39361 1.23214 9.41696 0.01 
109 1 11 -0.191144 -0.0927065 0.173923 0.0419486 -0.247616 -0.257453 0 0 0 2.39361 1.23214 9.41696 0.01 
110 1 11 -0.191075 -0.0928864 0.182921 0.0547292 -0.268499 -0.257969 0 0 0 2.39361 1.23214 9.41696 0.01 
111 1 12 0.0994656 0.0503698 0.111667 -0.07388 0.00775539 0.265242 0 0 0 -1.00992 4.05078 -4.88784 0.01 
112 1 12 0.100127 0.0515634 0.120563 -0.0320105 0.0135075 0.261358 0 0 0 -1.00992 4.05078 -4.88784 0.01 
113 1 12 0.100788 0.052757 0.129459 0.00985911 0.0192596 0.257474 0 0 0 -1.00992 4.05078 -4.88784 0.01 
114 1 12 0.101449 0.0539506 0.138355 0.0517287 0.0250117 0.25359 0 0 0 -1.00992 4.05078 -4.88784 0.01 
115 1 12 0.102111 0.0551442 0.147251 0.0935982 0.0307638 0.249706 0 0 0 -1.00992 4.05078 -4.88784 0.01 
116 1 12 0.102772 0.0563377 0.156147 0.135468 0.0365159 0.245822 -0.251551 -0.122952 0.273326 -1.00992 4.05078 -4.88784 0.01 
117 1 12 0.103433 0.0575313 0.165043 0.177337 0.042268 0.241938 -0.306053 -0.174407 0.305334 -1.00992 4.05078 -4.88784 0.01 
118 1 12 0.104094 0.0587249 0.173939 0.219207 0.0480201 0.238054 0 0 0 -1.00992 4.05078 -4.88784 0.01 
119 1 12 0.104756 0.0599185 0.182835 0.261077 0.0537722 0.23417 0 0 0 -1.00992 4.05078 -4.88784 0.01 
120 1 12 0.105417 0.0611121 0.191731 0.302946 0.0595242 0.230286 0 0 0 -1.00992 4.05078 -4.88784 0.01 
121 1 13 -0.0168848 0.215837 0.162169 0 0 -2.07905 0 0 0 0 0 0 0.01 
122 1 13 -0.0168848 0.215837 0.171169 0 0 -2.07905 0 0 0 0 0 0 0.01 
123 1 13 -0.0168848 0.215837 0.180169 0 0 -2.07905 0 0 0 0 0 0 0.01 
124 1 13 -0.0168848 0.215837 0.189169 0 0 -2.07905 0 0 0 0 0 0 0.01 
125 1 13 -0.0168848 0.215837 0.198169 0 0 -2.07905 0 0 0 0 0 0 0.01 
126 1 13 -0.0168848 0.215837 0.207169 0 0 -2.07905 0 0 0 0 0 0 0.01 
127 1 13 -0.0168848 0.215837 0.216169 0 0 -2.07905 0 0 0 0 0 0 0.01 
128 1 13 -0.0168848 0.215837 0.225169 0 0 -2.07905 0 0 0 0 0 0 0.01 
129 1 13 -0.0168848 0.215837 0.234169 0 0 -2.07905 0 0 0 0 0 0 0.01 
130 1 13 -0.0168848 0.215837 0.243169 0 0 -2.07905 0 0 0 0 0 0 0.01 
131 1 14 -0.0478226 0.120651 0.0107365 0.0877355 -0.0941374 -0.0486332 0 0 0 -3.92431 -0.131818 -9.54387 0.01 
132 1 14 -0.0474996 0.120821 0.0197291 0.0881719 -0.0619302 -0.0492575 0 0 0 -3.92431 -0.131818 -9.54387 0.01 
133 1 14 -0.0471766 0.120991 0.0287217 0.0886083 -0.0297231 -0.0498818 0 0 0 -3.92431 -0.131818 -9.54387 0.01 
134 1 14 -0.0468536 0.121161 0.0377143 0.0890447 0.00248412 -0.050506 0 0 0 -3.92431 -0.131818 -9.54387 0.01 
135 1 14 -0.0465307 0.121331 0.0467069 0.0894811 0.0346913 -0.0511303 0 0 0 -3.92431 -0.131818 -9.54387 0.01 
136 1 14 -0.0462077 0.121501 0.0556995 0.0899174 0.0668985 -0.0517546 0 0 0 -3.92431 -0.131818 -9.54387 0.01 
137 1 14 -0.0458847 0.121671 0.0646921 0.0903538 0.0991056 -0.0523789 0 0 0 -3.92431 -0.131818 -9.54387 0.01 
138 1 14 -0.0455617 0.121841 0.0736847 0.0907902 0.131313 -0.0530031 0 0 0 -3.92431 -0.131818 -9.54387 0.01 
139 1 14 -0.0452387 0.122011 0.0826773 0.0912266 0.16352 -0.0536274 0 0 0 -3.92431 -0.131818 -9.54387 0.01 
140 1 14 -0.0449157 0.122181 0.0916699 0.0916629 0.195727 -0.0542517 0.0245858 0.0316746 0.000643191 -3.92431 -0.131818 -9.54387 0.01 
141 1 15 -0.0104758 -0.0692281 0.104528 0 0 -2.07905 0 0 0 0 0 0 0.01 
142 1 15 -0.0104758 -0.0692281 0.113528 0 0 -2.07905 0 0 0 0 0 0 0.01 
143 1 15 -0.0104758 -0.0692281 0.122528 0 0 -2.07905 0 0 0 0 0 0 0.01 
144 1 15 -0.0104758 -0.0692281 0.131528 0 0 -2.07905 0 0 0 0 0 0 0.01 
145 1 15 -0.0104758 -0.0692281 0.140528 0 0 -2.07905 0 0 0 0 0 0 0.01 
146 1 15 -0.0104758 -0.0692281 0.149528 0 0 -2.07905 0 0 0 0 0 0 0.01 
147 1 15 -0.0104758 -0.0692281 0.158528 0 0 -2.07905 0 0 0 0 0 0 0.01 
148 1 15 -0.0104758 -0.0692281 0.167528 0 0 -2.07905 0 0 0 0 0 0 0.01 
149 1 15 -0.0104758 -0.0692281 0.176528 0 0 -2.07905 0 0 0 0 0 0 0.01 
150 1 15 -0.0104758 -0.0692281 0.185528 0 0 -2.07905 0 0 0 0 0 0 0.01 
151 1 16 -0.0377094 0.179205 0.0656516 0.0426368 -0.0315939 -1.1282 0 0 0 -0.681198 -0.191627 -1.0882 0.01 
152 1 16 -0.0379791 0.178975 0.0746446 0.0406632 -0.0251743 -1.1281 0 0 0 -0.681198 -0.191627 -1.0882 0.01 
153 1 16 -0.0382489 0.178745 0.0836376 0.0386895 -0.0187548 -1.12799 0 0 0 -0.681198 -0.191627 -1.0882 0.01 
154 1 16 -0.0385186 0.178515 0.0926307 0.0367158 -0.0123352 -1.12789 0 0 0 -0.681198 -0.191627 -1.0882 0.01 
155 1 16 -0.0387883 0.178285 0.101624 0.0347421 -0.0059157 -1.12778 0 0 0 -0.681198 -0.191627 -1.0882 0.01 
156 1 16 -0.039058 0.178055 0.110617 0.0327684 0.000503843 -1.12768 0 0 0 -0.681198 -0.191627 -1.0882 0.01 
157 1 16 -0.0393278 0.177825 0.11961 0.0307947 0.00692339 -1.12757 0 0 0 -0.681198 -0.191627 -1.0882 0.01 
158 1 16 -0.0395975 0.177595 0.128603 0.0288211 0.0133429 -1.12747 0 0 0 -0.681198 -0.191627 -1.0882 0.01 
159 1 16 -0.0398672 0.177365 0.137596 0.0268474 0.0197625 -1.12736 0 0 0 -0.681198 -0.191627 -1.0882 0.01 
160 1 16 -0.0401369 0.177135 0.146589 0.0248737 0.026182 -1.12726 0 0 0 -0.681198 -0.191627 -1.0882 0.01 
161 1 17 0.0724797 0.092649 0.0117705 -0.0178764 0.0209981 0.0174625 0 0 0 1.00345 0.713195 0.313773 0.01 
162 1 17 0.0725545 0.0924857 0.0207687 -0.0114077 0.0119923 0.0172453 0 0 0 1.00345 0.713195 0.313773 0.01 
163 1 17 0.0726293 0.0923225 0.0297669 -0.00493895 0.00298653 0.0170281 0 0 0 1.00345 0.713195 0.313773 0.01 
164 1 17 0.0727041 0.0921592 0.0387651 0.00152976 -0.00601925 0.016811 0 0 0 1.00345 0.713195 0.313773 0.01 
165 1 17 0.0727789 0.091996 0.0477633 0.00799846 -0.015025 0.0165938 0 0 0 1.00345 0.713195 0.313773 0.01 
166 1 17 0.0728536 0.0918327 0.0567615 0.0144672 -0.0240308 0.0163767 0 0 0 1.00345 0.713195 0.313773 0.01 
167 1 17 0.0729284 0.0916694 0.0657598 0.0209359 -0.0330366 0.0161595 0 0 0 1.00345 0.713195 0.313773 0.01 
168 1 17 0.0730032 0.0915062 0.074758 0.0274046 -0.0420424 0.0159424 0 0 0 1.00345 0.713195 0.313773 0.01 
169 1 17 0.073078 0.0913429 0.0837562 0.0338733 -0.0510482 0.0157252 0 0 0 1.00345 0.713195 0.313773 0.01 
170 1 17 0.0731527 0.0911797 0.0927544 0.040342 -0.0600539 0.0155081 0 0 0 1.00345 0.713195 0.313773 0.01 
171 1 18 -0.240672 -0.0436053 0.167183 -0.0794929 -0.286299 -1.25508 0 0 0 -3.56908 -0.0145523 -5.37114 0.01 
172 1 18 -0.240456 -0.0425471 0.176118 -0.0739394 -0.255569 -1.25885 0 0 0 -3.56908 -0.0145523 -5.37114 0.01 
173 1 18 -0.24024 -0.041489 0.185053 -0.068386 -0.224839 -1.26262 0 0 0 -3.56908 -0.0145523 -5.37114 0.01 
174 1 18 -0.240024 -0.0404308 0.193988 -0.0628325 -0.194109 -1.2664 0 0 0 -3.56908 -0.0145523 -5.37114 0.01 
175 1 18 -0.239808 -0.0393727 0.202923 -0.0572791 -0.163379 -1.27017 0 0 0 -3.56908 -0.0145523 -5.37114 0.01 
176 1 18 -0.239592 -0.0383145 0.211858 -0.0517257 -0.132649 -1.27394 0 0 0 -3.56908 -0.0145523 -5.37114 0.01 
177 1 18 -0.239376 -0.0372564 0.220793 -0.0461722 -0.101919 -1.27772 0 0 0 -3.56908 -0.0145523 -5.37114 0.01 
178 1 18 -0.23916 -0.0361982 0.229728 -0.0406188 -0.0711886 -1.28149 0 0 0 -3.56908 -0.0145523 -5.37114 0.01 
179 1 18 -0.238945 -0.0351401 0.238663 -0.0350653 -0.0404585 -1.28526 0 0 0 -3.56908 -0.0145523 -5.37114 0.01 
180 1 18 -0.238729 -0.0340819 0.247598 -0.0295119 -0.00972835 -1.28904 0 0 0 -3.56908 -0.0145523 -5.37114 0.01 
181 1 19 0.0025355 0.165801 0.121048 -0.0732635 0.0261476 -1.80628 0 0 0 2.67387 3.71531 4.77908 0.01 
182 1 19 0.00294332 0.16554 0.130035 -0.0386284 0.00406661 -1.80849 0 0 0 2.67387 3.71531 4.77908 0.01 
183 1 19 0.00335115 0.165279 0.139022 -0.00399322 -0.0180144 -1.8107 0 0 0 2.67387 3.71531 4.77908 0.01 
184 1 19 0.00375898 0.165019 0.148009 0.0306419 -0.0400954 -1.81291 0 0 0 2.67387 3.71531 4.77908 0.01 
185 1 19 0.0041668 0.164758 0.156996 0.0652771 -0.0621764 -1.81513 0 0 0 2.67387 3.71531 4.77908 0.01 
186 1 19 0.00457463 0.164497 0.165983 0.0999123 -0.0842574 -1.81734 0 0 0 2.67387 3.71531 4.77908 0.01 
187 1 19 0.00498246 0.164237 0.17497 0.134547 -0.106338 -1.81955 0 0 0 2.67387 3.71531 4.77908 0.01 
188 1 19 0.00539029 0.163976 0.183957 0.169183 -0.128419 -1.82176 0 0 0 2.67387 3.71531 4.77908 0.01 
189 1 19 0.00579811 0.163715 0.192944 0.203818 -0.1505 -1.82398 0 0 0 2.67387 3.71531 4.77908 0.01 
190 1 19 0.00620594 0.163455 0.201931 0.238453 -0.172581 -1.82619 0 0 0 2.67387 3.71531 4.77908 0.01 
191 1 20 -0.00723265 0.187441 0.00992382 0.00313964 0.0149756 0.0573374 -0.00311213 -0.019877 -0.481077 -1.43664 0.30761 7.85274 0.01 
192 1 20 -0.00713488 0.187831 0.0189148 0.00284024 0.0286601 0.0567466 0 0 0 -1.43664 0.30761 7.85274 0.01 
193 1 20 -0.00703712 0.188222 0.0279058 0.00254084 0.0423447 0.0561557 0 0 0 -1.43664 0.30761 7.85274 0.01 
194 1 20 -0.00693936 0.188612 0.0368968 0.00224144 0.0560293 0.0555649 0 0 0 -1.43664 0.30761 7.85274 0.01 
195 1 20 -0.00684159 0.189002 0.0458878 0.00194204 0.0697138 0.0549741 0 0 0 -1.43664 0.30761 7.85274 0.01 
196 1 20 -0.00674383 0.189393 0.0548788 0.00164263 0.0833984 0.0543832 0 0 0 -1.43664 0.30761 7.85274 0.01 
197 1 20 -0.00664607 0.189783 0.0638698 0.00134323 0.0970829 0.0537924 0 0 0 -1.43664 0.30761 7.85274 0.01 
198 1 20 -0.0065483 0.190173 0.0728608 0.00104383 0.110768 0.0532016 0 0 0 -1.43664 0.30761 7.85274 0.01 
199 1 20 -0.00645054 0.190564 0.0818518 0.000744434 0.124452 0.0526107 0 0 0 -1.43664 0.30761 7.85274 0.01 
200 1 20 -0.00635277 0.190954 0.0908428 0.000445034 0.138137 0.0520199 0 0 0 -1.43664 0.30761 7.85274 0.01 
201 1 21 0.0189551 0.00415307 0.00988243 -0.0226211 0.01843 0.00523548 -0.233301 0.0714985 0.997586 -1.74672 -1.21752 -2.6299 0.01 
202 1 21 0.0183932 0.00481259 0.0188406 -0.0317934 0.035555 0.00339945 0.0781634 0.000475559 0.0346409 -1.74672 -1.21752 -2.6299 0.01 
203 1 21 0.0178314 0.0054721 0.0277988 -0.0409657 0.05268 0.00156342 0.0809609 0.00847325 0.0287461 -1.74672 -1.21752 -2.6299 0.01 
204 1 21 0.0172696 0.00613162 0.036757 -0.050138 0.069805 -0.000272615 0 0 0 -1.74672 -1.21752 -2.6299 0.01 
205 1 21 0.0167077 0.00679114 0.0457152 -0.0593104 0.08693 -0.00210865 0 0 0 -1.74672 -1.21752 -2.6299 0.01 
206 1 21 0.0161459 0.00745066 0.0546734 -0.0684827 0.104055 -0.00394468 0 0 0 -1.74672 -1.21752 -2.6299 0.01 
207 1 21 0.0155841 0.00811018 0.0636316 -0.077655 0.12118 -0.00578071 0 0 0 -1.74672 -1.21752 -2.6299 0.01 
208 1 21 0.0150222 0.00876969 0.0725898 -0.0868273 0.138305 -0.00761674 0 0 0 -1.74672 -1.21752 -2.6299 0.01 
209 1 21 0.0144604 0.00942921 0.081548 -0.0959996 0.15543 -0.00945277 0 0 0 -1.74672 -1.21752 -2.6299 0.01 
210 1 21 0.0138986 0.0100887 0.0905062 -0.105172 0.172555 -0.0112888 -0.126599 0.0977407 -0.614754 -1.74672 -1.21752 -2.6299 0.01 
211 1 22 0.00288139 0.203037 0.106985 -0.174614 0.413805 0.292823 -1.02196 -1.75986 3.60173 8.25349 1.04424 7.17676 0.01 
212 1 22 0.00277917 0.202166 0.115942 -0.159013 0.339143 0.285744 0 0 0 8.25349 1.04424 7.17676 0.01 
213 1 22 0.00267696 0.201295 0.124899 -0.143411 0.264482 0.278666 0 0 0 8.25349 1.04424 7.17676 0.01 
214 1 22 0.00257475 0.200425 0.133856 -0.12781 0.18982 0.271587 0 0 0 8.25349 1.04424 7.17676 0.01 
215 1 22 0.00247253 0.199554 0.142814 -0.112209 0.115158 0.264509 0 0 0 8.25349 1.04424 7.17676 0.01 
216 1 22 0.00237032 0.198684 0.151771 -0.0966074 0.040496 0.25743 0 0 0 8.25349 1.04424 7.17676 0.01 
217 1 22 0.00226811 0.197813 0.160728 -0.0810061 -0.0341659 0.250352 0 0 0 8.25349 1.04424 7.17676 0.01 
218 1 22 0.00216589 0.196943 0.169685 -0.0654049 -0.108828 0.243274 0 0 0 8.25349 1.04424 7.17676 0.01 
219 1 22 0.00206368 0.196072 0.178642 -0.0498036 -0.18349 0.236195 0 0 0 8.25349 1.04424 7.17676 0.01 
220 1 22 0.00196147 0.195202 0.1876 -0.0342023 -0.258151 0.229117 0 0 0 8.25349 1.04424 7.17676 0.01 
221 1 23 0.214349 0.0539113 0.16746 0 0 -2.07905 0 0 0 0 0 0 0.01 
222 1 23 0.214349 0.0539113 0.17646 0 0 -2.07905 0 0 0 0 0 0 0.01 
223 1 23 0.214349 0.0539113 0.18546 0 0 -2.07905 0 0 0 0 0 0 0.01 
224 1 23 0.214349 0.0539113 0.19446 0 0 -2.07905 0 0 0 0 0 0 0.01 
225 1 23 0.214349 0.0539113 0.20346 0 0 -2.07905 0 0 0 0 0 0 0.01 
226 1 23 0.214349 0.0539113 0.21246 0 0 -2.07905 0 0 0 0 0 0 0.01 
227 1 23 0.214349 0.0539113 0.22146 0 0 -2.07905 0 0 0 0 0 0 0.01 
228 1 23 0.214349 0.0539113 0.23046 0 0 -2.07905 0 0 0 0 0 0 0.01 
229 1 23 0.214349 0.0539113 0.23946 0 0 -2.07905 0 0 0 0 0 0 0.01 
230 1 23 0.214349 0.0539113 0.24846 0 0 -2.07905 0 0 0 0 0 0 0.01 
231 1 24 0.157986 0.024491 0.0100038 0.0144718 -0.044569 0.00574381 0 0 0 4.40486 1.37269 2.03949 0.01 
232 1 24 0.158284 0.0232443 0.0189121 0.0292428 -0.0832015 -0.000156491 0 0 0 4.40486 1.37269 2.03949 0.01 
233 1 24 0.158582 0.0219975 0.0278203 0.0440138 -0.121834 -0.00605679 0 0 0 4.40486 1.37269 2.03949 0.01 
234 1 24 0.158879 0.0207508 0.0367286 0.0587848 -0.160467 -0.0119571 0 0 0 4.40486 1.37269 2.03949 0.01 
235 1 24 0.159177 0.0195041 0.0456368 0.0735558 -0.199099 -0.0178574 0 0 0 4.40486 1.37269 2.03949 0.01 
236 1 24 0.159475 0.0182573 0.0545451 0.0883268 -0.237732 -0.0237577 0 0 0 4.40486 1.37269 2.03949 0.01 
237 1 24 0.159772 0.0170106 0.0634534 0.103098 -0.276364 -0.029658 0 0 0 4.40486 1.37269 2.03949 0.01 
238 1 24 0.16007 0.0157639 0.0723616 0.117869 -0.314996 -0.0355583 0 0 0 4.40486 1.37269 2.03949 0.01 
239 1 24 0.160368 0.0145171 0.0812699 0.13264 -0.353629 -0.0414586 0 0 0 4.40486 1.37269 2.03949 0.01 
240 1 24 0.160665 0.0132704 0.0901781 0.147411 -0.392261 -0.0473589 0 0 0 4.40486 1.37269 2.03949 0.01 
241 1 25 0.13508 -0.174099 0.114361 0.0274365 0.00618081 -0.734286 0 0 0 -0.0230925 0.0790378 0.00153552 0.01 
242 1 25 0.135096 -0.174095 0.123361 0.0281478 0.00638867 -0.734287 0 0 0 -0.0230925 0.0790378 0.00153552 0.01 
243 1 25 0.135111 -0.174091 0.132361 0.0288591 0.00659652 -0.734289 0 0 0 -0.0230925 0.0790378 0.00153552 0.01 
244 1 25 0.135127 -0.174087 0.141361 0.0295705 0.00680438 -0.73429 0 0 0 -0.0230925 0.0790378 0.00153552 0.01 
245 1 25 0.135143 -0.174083 0.150361 0.0302818 0.00701224 -0.734291 0 0 0 -0.0230925 0.0790378 0.00153552 0.01 
246 1 25 0.135159 -0.174079 0.159361 0.0309931 0.00722009 -0.734293 0 0 0 -0.0230925 0.0790378 0.00153552 0.01 
247 1 25 0.135175 -0.174075 0.168361 0.0317045 0.00742795 -0.734294 0 0 0 -0.0230925 0.0790378 0.00153552 0.01 
248 1 25 0.135191 -0.174071 0.177361 0.0324158 0.0076358 -0.734295 0 0 0 -0.0230925 0.0790378 0.00153552 0.01 
249 1 25 0.135206 -0.174067 0.186361 0.0331271 0.00784366 -0.734297 0 0 0 -0.0230925 0.0790378 0.00153552 0.01 
250 1 25 0.135222 -0.174064 0.195361 0.0338385 0.00805152 -0.734298 0 0 0 -0.0230925 0.0790378 0.00153552 0.01 
251 1 26 -0.0094706 -0.169981 0.0148085 0.0197641 -0.0241853 0.440321 0 0 0 1.82376 1.44055 1.0791 0.01 
252 1 26 -0.00907569 -0.170446 0.0237879 0.0332005 -0.0401352 0.438905 0 0 0 1.82376 1.44055 1.0791 0.01 
253 1 26 -0.00868077 -0.17091 0.0327672 0.046637 -0.0560851 0.437489 0 0 0 1.82376 1.44055 1.0791 0.01 
254 1 26 -0.00828586 -0.171375 0.0417465 0.0600734 -0.0720351 0.436073 0 0 0 1.82376 1.44055 1.0791 0.01 
255 1 26 -0.00789094 -0.171839 0.0507258 0.0735098 -0.087985 0.434657 0 0 0 1.82376 1.44055 1.0791 0.01 
256 1 26 -0.00749602 -0.172304 0.0597052 0.0869462 -0.103935 0.433241 0 0 0 1.82376 1.44055 1.0791 0.01 
257 1 26 -0.00710111 -0.172768 0.0686845 0.100383 -0.119885 0.431825 0 0 0 1.82376 1.44055 1.0791 0.01 
258 1 26 -0.00670619 -0.173233 0.0776638 0.113819 -0.135835 0.430409 0 0 0 1.82376 1.44055 1.0791 0.01 
259 1 26 -0.00631128 -0.173697 0.0866431 0.127255 -0.151785 0.428993 0 0 0 1.82376 1.44055 1.0791 0.01 
260 1 26 -0.00591636 -0.174162 0.0956225 0.140692 -0.167735 0.427577 0 0 0 1.82376 1.44055 1.0791 0.01 
261 1 27 -0.144741 0.152567 0.114849 -0.0990177 0.0781585 -1.6579 0 0 0 1.46188 1.38237 0.520853 0.01 
262 1 27 -0.144802 0.152215 0.123842 -0.0864031 0.0649803 -1.65833 0 0 0 1.46188 1.38237 0.520853 0.01 
263 1 27 -0.144863 0.151864 0.132835 -0.0737885 0.051802 -1.65876 0 0 0 1.46188 1.38237 0.520853 0.01 
264 1 27 -0.144924 0.151513 0.141828 -0.061174 0.0386237 -1.65919 0 0 0 1.46188 1.38237 0.520853 0.01 
265 1 27 -0.144985 0.151161 0.150821 -0.0485594 0.0254454 -1.65962 0 0 0 1.46188 1.38237 0.520853 0.01 
266 1 27 -0.145046 0.15081 0.159814 -0.0359448 0.0122671 -1.66005 0 0 0 1.46188 1.38237 0.520853 0.01 
267 1 27 -0.145107 0.150458 0.168807 -0.0233302 -0.000911227 -1.66048 0 0 0 1.46188 1.38237 0.520853 0.01 
268 1 27 -0.145168 0.150107 0.1778 -0.0107156 -0.0140895 -1.66091 0 0 0 1.46188 1.38237 0.520853 0.01 
269 1 27 -0.145229 0.149755 0.186792 0.00189899 -0.0272678 -1.66134 0 0 0 1.46188 1.38237 0.520853 0.01 
270 1 27 -0.14529 0.149404 0.195785 0.0145136 -0.0404461 -1.66177 0 0 0 1.46188 1.38237 0.520853 0.01 
271 1 28 0.0141693 -0.168469 0.105952 -0.0333568 0.0873302 0.193569 -0.236095 0.173897 1.3282 -4.30384 -3.91631 -1.91648 0.01 
272 1 28 0.0136569 -0.1679 0.114919 -0.0673849 0.126906 0.189113 0 0 0 -4.30384 -3.91631 -1.91648 0.01 
273 1 28 0.0131446 -0.167331 0.123886 -0.101413 0.166482 0.184656 0 0 0 -4.30384 -3.91631 -1.91648 0.01 
274 1 28 0.0126322 -0.166762 0.132854 -0.135441 0.206058 0.1802 0 0 0 -4.30384 -3.91631 -1.91648 0.01 
275 1 28 0.0121198 -0.166192 0.141821 -0.169469 0.245634 0.175743 0 0 0 -4.30384 -3.91631 -1.91648 0.01 
276 1 28 0.0116074 -0.165623 0.150788 -0.203497 0.285211 0.171287 0 0 0 -4.30384 -3.91631 -1.91648 0.01 
277 1 28 0.011095 -0.165054 0.159756 -0.237525 0.324787 0.16683 0 0 0 -4.30384 -3.91631 -1.91648 0.01 
278 1 28 0.0105826 -0.164485 0.168723 -0.271553 0.364363 0.162374 0 0 0 -4.30384 -3.91631 -1.91648 0.01 
279 1 28 0.0100703 -0.163915 0.17769 -0.305581 0.403939 0.157918 0 0 0 -4.30384 -3.91631 -1.91648 0.01 
280 1 28 0.00955788 -0.163346 0.186658 -0.33961 0.443515 0.153461 0.204921 -0.014817 -2.8569 -4.30384 -3.91631 -1.91648 0.01 
281 1 29 0.0770836 0.12585 0.0191124 -0.00896717 -0.048643 -0.162644 0 0 0 -4.79872 3.35517 -10.3662 0.01 
282 1 29 0.077328 0.12623 0.0281011 0.0251346 -0.0080428 -0.16529 0 0 0 -4.79872 3.35517 -10.3662 0.01 
283 1 29 0.0775724 0.126611 0.0370897 0.0592363 0.0325574 -0.167935 0 0 0 -4.79872 3.35517 -10.3662 0.01 
284 1 29 0.0778169 0.126991 0.0460783 0.093338 0.0731575 -0.170581 0 0 0 -4.79872 3.35517 -10.3662 0.01 
285 1 29 0.0780613 0.127371 0.055067 0.12744 0.113758 -0.173227 -0.442272 0.13181 1.278 -4.79872 3.35517 -10.3662 0.01 
286 1 29 0.0783057 0.127752 0.0640556 0.161541 0.154358 -0.175872 -0.531143 0.00737995 1.16784 -4.79872 3.35517 -10.3662 0.01 
287 1 29 0.0785502 0.128132 0.0730442 0.195643 0.194958 -0.178518 0 0 0 -4.79872 3.35517 -10.3662 0.01 
288 1 29 0.0787946 0.128513 0.0820329 0.229745 0.235558 -0.181163 0 0 0 -4.79872 3.35517 -10.3662 0.01 
289 1 29 0.079039 0.128893 0.0910215 0.263847 0.276158 -0.183809 -0.356551 -0.27183 -0.224432 -4.79872 3.35517 -10.3662 0.01 