ITEM: TIMESTEP
6000
ITEM: NUMBER OF ATOMS
6300
ITEM: BOX BOUNDS mm mm mm
-0.3 0.3
-0.3 0.3
0 0.5
ITEM: ATOMS id type mol x y z vx vy vz fx fy fz omegax omegay omegaz radius 
1 1 1 -0.115317 -0.129414 0.166539 0 0 -1.58855 0 0 0 0 0 0 0.01 
2 1 1 -0.115317 -0.129414 0.175539 0 0 -1.58855 0 0 0 0 0 0 0.01 
3 1 1 -0.115317 -0.129414 0.184539 0 0 -1.58855 0 0 0 0 0 0 0.01 
4 1 1 -0.115317 -0.129414 0.193539 0 0 -1.58855 0 0 0 0 0 0 0.01 
5 1 1 -0.115317 -0.129414 0.202539 0 0 -1.58855 0 0 0 0 0 0 0.01 
6 1 1 -0.115317 -0.129414 0.211539 0 0 -1.58855 0 0 0 0 0 0 0.01 
7 1 1 -0.115317 -0.129414 0.220539 0 0 -1.58855 0 0 0 0 0 0 0.01 
8 1 1 -0.115317 -0.129414 0.229539 0 0 -1.58855 0 0 0 0 0 0 0.01 
9 1 1 -0.115317 -0.129414 0.238539 0 0 -1.58855 0 0 0 0 0 0 0.01 
10 1 1 -0.115317 -0.129414 0.247539 0 0 -1.58855 0 0 0 0 0 0 0.01 
11 1 2 -0.0460582 -0.101391 0.156079 0 0 -1.58855 0 0 0 0 0 0 0.01 
12 1 2 -0.0460582 -0.101391 0.165079 0 0 -1.58855 0 0 0 0 0 0 0.01 
13 1 2 -0.0460582 -0.101391 0.174079 0 0 -1.58855 0 0 0 0 0 0 0.01 
14 1 2 -0.0460582 -0.101391 0.183079 0 0 -1.58855 0 0 0 0 0 0 0.01 
15 1 2 -0.0460582 -0.101391 0.192079 0 0 -1.58855 0 0 0 0 0 0 0.01 
16 1 2 -0.0460582 -0.101391 0.201079 0 0 -1.58855 0 0 0 0 0 0 0.01 
17 1 2 -0.0460582 -0.101391 0.210079 0 0 -1.58855 0 0 0 0 0 0 0.01 
18 1 2 -0.0460582 -0.101391 0.219079 0 0 -1.58855 0 0 0 0 0 0 0.01 
19 1 2 -0.0460582 -0.101391 0.228079 0 0 -1.58855 0 0 0 0 0 0 0.01 
20 1 2 -0.0460582 -0.101391 0.237079 0 0 -1.58855 0 0 0 0 0 0 0.01 
21 1 3 -0.0433468 -0.0313624 0.142137 0 0 -1.58855 0 0 0 0 0 0 0.01 
22 1 3 -0.0433468 -0.0313624 0.151137 0 0 -1.58855 0 0 0 0 0 0 0.01 
23 1 3 -0.0433468 -0.0313624 0.160137 0 0 -1.58855 0 0 0 0 0 0 0.01 
24 1 3 -0.0433468 -0.0313624 0.169137 0 0 -1.58855 0 0 0 0 0 0 0.01 
25 1 3 -0.0433468 -0.0313624 0.178137 0 0 -1.58855 0 0 0 0 0 0 0.01 
26 1 3 -0.0433468 -0.0313624 0.187137 0 0 -1.58855 0 0 0 0 0 0 0.01 
27 1 3 -0.0433468 -0.0313624 0.196137 0 0 -1.58855 0 0 0 0 0 0 0.01 
28 1 3 -0.0433468 -0.0313624 0.205137 0 0 -1.58855 0 0 0 0 0 0 0.01 
29 1 3 -0.0433468 -0.0313624 0.214137 0 0 -1.58855 0 0 0 0 0 0 0.01 
30 1 3 -0.0433468 -0.0313624 0.223137 0 0 -1.58855 0 0 0 0 0 0 0.01 
31 1 4 -0.0929903 0.110329 0.0828994 0 0 -1.58855 0 0 0 0 0 0 0.01 
32 1 4 -0.0929903 0.110329 0.0918994 0 0 -1.58855 0 0 0 0 0 0 0.01 
33 1 4 -0.0929903 0.110329 0.100899 0 0 -1.58855 0 0 0 0 0 0 0.01 
34 1 4 -0.0929903 0.110329 0.109899 0 0 -1.58855 0 0 0 0 0 0 0.01 
35 1 4 -0.0929903 0.110329 0.118899 0 0 -1.58855 0 0 0 0 0 0 0.01 
36 1 4 -0.0929903 0.110329 0.127899 0 0 -1.58855 0 0 0 0 0 0 0.01 
37 1 4 -0.0929903 0.110329 0.136899 0 0 -1.58855 0 0 0 0 0 0 0.01 
38 1 4 -0.0929903 0.110329 0.145899 0 0 -1.58855 0 0 0 0 0 0 0.01 
39 1 4 -0.0929903 0.110329 0.154899 0 0 -1.58855 0 0 0 0 0 0 0.01 
40 1 4 -0.0929903 0.110329 0.163899 0 0 -1.58855 0 0 0 0 0 0 0.01 
41 1 5 0.0772617 -0.136794 0.105345 0.0256563 0.194328 0.132169 0.13083 0.992252 5.60118 0.0194932 -0.00343522 0.00164362 0.01 
42 1 5 0.077266 -0.136761 0.114345 0.0256254 0.194152 0.13217 0 0 0 0.0194932 -0.00343522 0.00164362 0.01 
43 1 5 0.0772703 -0.136728 0.123345 0.0255944 0.193977 0.132171 0 0 0 0.0194932 -0.00343522 0.00164362 0.01 
44 1 5 0.0772746 -0.136695 0.132345 0.0255634 0.193802 0.132171 0 0 0 0.0194932 -0.00343522 0.00164362 0.01 
45 1 5 0.0772789 -0.136662 0.141345 0.0255325 0.193626 0.132172 0 0 0 0.0194932 -0.00343522 0.00164362 0.01 
46 1 5 0.0772832 -0.13663 0.150345 0.0255015 0.193451 0.132172 0 0 0 0.0194932 -0.00343522 0.00164362 0.01 
47 1 5 0.0772875 -0.136597 0.159345 0.0254705 0.193275 0.132173 0 0 0 0.0194932 -0.00343522 0.00164362 0.01 
48 1 5 0.0772918 -0.136564 0.168345 0.0254395 0.1931 0.132174 0 0 0 0.0194932 -0.00343522 0.00164362 0.01 
49 1 5 0.0772961 -0.136531 0.177345 0.0254086 0.192924 0.132174 0 0 0 0.0194932 -0.00343522 0.00164362 0.01 
50 1 5 0.0773004 -0.136498 0.186345 0.0253776 0.192749 0.132175 0 0 0 0.0194932 -0.00343522 0.00164362 0.01 
51 1 6 0.170849 -0.044483 0.131339 0 0 -1.58855 0 0 0 0 0 0 0.01 
52 1 6 0.170849 -0.044483 0.140339 0 0 -1.58855 0 0 0 0 0 0 0.01 
53 1 6 0.170849 -0.044483 0.149339 0 0 -1.58855 0 0 0 0 0 0 0.01 
54 1 6 0.170849 -0.044483 0.158339 0 0 -1.58855 0 0 0 0 0 0 0.01 
55 1 6 0.170849 -0.044483 0.167339 0 0 -1.58855 0 0 0 0 0 0 0.01 
56 1 6 0.170849 -0.044483 0.176339 0 0 -1.58855 0 0 0 0 0 0 0.01 
57 1 6 0.170849 -0.044483 0.185339 0 0 -1.58855 0 0 0 0 0 0 0.01 
58 1 6 0.170849 -0.044483 0.194339 0 0 -1.58855 0 0 0 0 0 0 0.01 
59 1 6 0.170849 -0.044483 0.203339 0 0 -1.58855 0 0 0 0 0 0 0.01 
60 1 6 0.170849 -0.044483 0.212339 0 0 -1.58855 0 0 0 0 0 0 0.01 
61 1 7 -0.0369062 0.215855 0.133862 0 0 -1.58855 0 0 0 0 0 0 0.01 
62 1 7 -0.0369062 0.215855 0.142862 0 0 -1.58855 0 0 0 0 0 0 0.01 
63 1 7 -0.0369062 0.215855 0.151862 0 0 -1.58855 0 0 0 0 0 0 0.01 
64 1 7 -0.0369062 0.215855 0.160862 0 0 -1.58855 0 0 0 0 0 0 0.01 
65 1 7 -0.0369062 0.215855 0.169862 0 0 -1.58855 0 0 0 0 0 0 0.01 
66 1 7 -0.0369062 0.215855 0.178862 0 0 -1.58855 0 0 0 0 0 0 0.01 
67 1 7 -0.0369062 0.215855 0.187862 0 0 -1.58855 0 0 0 0 0 0 0.01 
68 1 7 -0.0369062 0.215855 0.196862 0 0 -1.58855 0 0 0 0 0 0 0.01 
69 1 7 -0.0369062 0.215855 0.205862 0 0 -1.58855 0 0 0 0 0 0 0.01 
70 1 7 -0.0369062 0.215855 0.214862 0 0 -1.58855 0 0 0 0 0 0 0.01 
71 1 8 0.122768 -0.136526 0.148719 0 0 -1.58855 0 0 0 0 0 0 0.01 
72 1 8 0.122768 -0.136526 0.157719 0 0 -1.58855 0 0 0 0 0 0 0.01 
73 1 8 0.122768 -0.136526 0.166719 0 0 -1.58855 0 0 0 0 0 0 0.01 
74 1 8 0.122768 -0.136526 0.175719 0 0 -1.58855 0 0 0 0 0 0 0.01 
75 1 8 0.122768 -0.136526 0.184719 0 0 -1.58855 0 0 0 0 0 0 0.01 
76 1 8 0.122768 -0.136526 0.193719 0 0 -1.58855 0 0 0 0 0 0 0.01 
77 1 8 0.122768 -0.136526 0.202719 0 0 -1.58855 0 0 0 0 0 0 0.01 
78 1 8 0.122768 -0.136526 0.211719 0 0 -1.58855 0 0 0 0 0 0 0.01 
79 1 8 0.122768 -0.136526 0.220719 0 0 -1.58855 0 0 0 0 0 0 0.01 
80 1 8 0.122768 -0.136526 0.229719 0 0 -1.58855 0 0 0 0 0 0 0.01 
81 1 9 -0.103348 0.0216352 0.280709 0 0 -1.58855 0 0 0 0 0 0 0.01 
82 1 9 -0.103348 0.0216352 0.289709 0 0 -1.58855 0 0 0 0 0 0 0.01 
83 1 9 -0.103348 0.0216352 0.298709 0 0 -1.58855 0 0 0 0 0 0 0.01 
84 1 9 -0.103348 0.0216352 0.307709 0 0 -1.58855 0 0 0 0 0 0 0.01 
85 1 9 -0.103348 0.0216352 0.316709 0 0 -1.58855 0 0 0 0 0 0 0.01 
86 1 9 -0.103348 0.0216352 0.325709 0 0 -1.58855 0 0 0 0 0 0 0.01 
87 1 9 -0.103348 0.0216352 0.334709 0 0 -1.58855 0 0 0 0 0 0 0.01 
88 1 9 -0.103348 0.0216352 0.343709 0 0 -1.58855 0 0 0 0 0 0 0.01 
89 1 9 -0.103348 0.0216352 0.352709 0 0 -1.58855 0 0 0 0 0 0 0.01 
90 1 9 -0.103348 0.0216352 0.361709 0 0 -1.58855 0 0 0 0 0 0 0.01 
91 1 10 0.0526392 0.204817 0.117179 0 0 -1.58855 0 0 0 0 0 0 0.01 
92 1 10 0.0526392 0.204817 0.126179 0 0 -1.58855 0 0 0 0 0 0 0.01 
93 1 10 0.0526392 0.204817 0.135179 0 0 -1.58855 0 0 0 0 0 0 0.01 
94 1 10 0.0526392 0.204817 0.144179 0 0 -1.58855 0 0 0 0 0 0 0.01 
95 1 10 0.0526392 0.204817 0.153179 0 0 -1.58855 0 0 0 0 0 0 0.01 
96 1 10 0.0526392 0.204817 0.162179 0 0 -1.58855 0 0 0 0 0 0 0.01 
97 1 10 0.0526392 0.204817 0.171179 0 0 -1.58855 0 0 0 0 0 0 0.01 
98 1 10 0.0526392 0.204817 0.180179 0 0 -1.58855 0 0 0 0 0 0 0.01 
99 1 10 0.0526392 0.204817 0.189179 0 0 -1.58855 0 0 0 0 0 0 0.01 
100 1 10 0.0526392 0.204817 0.198179 0 0 -1.58855 0 0 0 0 0 0 0.01 
101 1 11 -0.191384 -0.0894902 0.169489 0 0 -1.58855 0 0 0 0 0 0 0.01 
102 1 11 -0.191384 -0.0894902 0.178489 0 0 -1.58855 0 0 0 0 0 0 0.01 
103 1 11 -0.191384 -0.0894902 0.187489 0 0 -1.58855 0 0 0 0 0 0 0.01 
104 1 11 -0.191384 -0.0894902 0.196489 0 0 -1.58855 0 0 0 0 0 0 0.01 
105 1 11 -0.191384 -0.0894902 0.205489 0 0 -1.58855 0 0 0 0 0 0 0.01 
106 1 11 -0.191384 -0.0894902 0.214489 0 0 -1.58855 0 0 0 0 0 0 0.01 
107 1 11 -0.191384 -0.0894902 0.223489 0 0 -1.58855 0 0 0 0 0 0 0.01 
108 1 11 -0.191384 -0.0894902 0.232489 0 0 -1.58855 0 0 0 0 0 0 0.01 
109 1 11 -0.191384 -0.0894902 0.241489 0 0 -1.58855 0 0 0 0 0 0 0.01 
110 1 11 -0.191384 -0.0894902 0.250489 0 0 -1.58855 0 0 0 0 0 0 0.01 
111 1 12 0.0969999 0.0566008 0.108129 0.146464 -0.0372153 0.116741 0.926394 0.204842 16.9139 -1.09903 -0.823978 1.38309 0.01 
112 1 12 0.0969068 0.0566465 0.117129 0.138985 -0.0274534 0.116614 0 0 0 -1.09903 -0.823978 1.38309 0.01 
113 1 12 0.0968137 0.0566921 0.126128 0.131507 -0.0176916 0.116487 0 0 0 -1.09903 -0.823978 1.38309 0.01 
114 1 12 0.0967206 0.0567378 0.135128 0.124028 -0.00792981 0.11636 0 0 0 -1.09903 -0.823978 1.38309 0.01 
115 1 12 0.0966274 0.0567835 0.144127 0.11655 0.00183201 0.116233 0 0 0 -1.09903 -0.823978 1.38309 0.01 
116 1 12 0.0965343 0.0568291 0.153126 0.109071 0.0115938 0.116106 0 0 0 -1.09903 -0.823978 1.38309 0.01 
117 1 12 0.0964412 0.0568748 0.162126 0.101593 0.0213556 0.115979 0 0 0 -1.09903 -0.823978 1.38309 0.01 
118 1 12 0.0963481 0.0569205 0.171125 0.0941143 0.0311175 0.115852 0 0 0 -1.09903 -0.823978 1.38309 0.01 
119 1 12 0.0962549 0.0569661 0.180125 0.0866358 0.0408793 0.115725 0.325284 -0.290324 -0.756855 -1.09903 -0.823978 1.38309 0.01 
120 1 12 0.0961618 0.0570118 0.189124 0.0791574 0.0506411 0.115598 0 0 0 -1.09903 -0.823978 1.38309 0.01 
121 1 13 -0.0168848 0.215837 0.253859 0 0 -1.58855 0 0 0 0 0 0 0.01 
122 1 13 -0.0168848 0.215837 0.262859 0 0 -1.58855 0 0 0 0 0 0 0.01 
123 1 13 -0.0168848 0.215837 0.271859 0 0 -1.58855 0 0 0 0 0 0 0.01 
124 1 13 -0.0168848 0.215837 0.280859 0 0 -1.58855 0 0 0 0 0 0 0.01 
125 1 13 -0.0168848 0.215837 0.289859 0 0 -1.58855 0 0 0 0 0 0 0.01 
126 1 13 -0.0168848 0.215837 0.298859 0 0 -1.58855 0 0 0 0 0 0 0.01 
127 1 13 -0.0168848 0.215837 0.307859 0 0 -1.58855 0 0 0 0 0 0 0.01 
128 1 13 -0.0168848 0.215837 0.316859 0 0 -1.58855 0 0 0 0 0 0 0.01 
129 1 13 -0.0168848 0.215837 0.325859 0 0 -1.58855 0 0 0 0 0 0 0.01 
130 1 13 -0.0168848 0.215837 0.334859 0 0 -1.58855 0 0 0 0 0 0 0.01 
131 1 14 -0.0494958 0.122461 0.0250097 0 0 -1.58855 0 0 0 0 0 0 0.01 
132 1 14 -0.0494958 0.122461 0.0340097 0 0 -1.58855 0 0 0 0 0 0 0.01 
133 1 14 -0.0494958 0.122461 0.0430097 0 0 -1.58855 0 0 0 0 0 0 0.01 
134 1 14 -0.0494958 0.122461 0.0520097 0 0 -1.58855 0 0 0 0 0 0 0.01 
135 1 14 -0.0494958 0.122461 0.0610097 0 0 -1.58855 0 0 0 0 0 0 0.01 
136 1 14 -0.0494958 0.122461 0.0700097 0 0 -1.58855 0 0 0 0 0 0 0.01 
137 1 14 -0.0494958 0.122461 0.0790097 0 0 -1.58855 0 0 0 0 0 0 0.01 
138 1 14 -0.0494958 0.122461 0.0880097 0 0 -1.58855 0 0 0 0 0 0 0.01 
139 1 14 -0.0494958 0.122461 0.0970097 0 0 -1.58855 0 0 0 0 0 0 0.01 
140 1 14 -0.0494958 0.122461 0.10601 0 0 -1.58855 0 0 0 0 0 0 0.01 
141 1 15 -0.0104758 -0.0692281 0.196218 0 0 -1.58855 0 0 0 0 0 0 0.01 
142 1 15 -0.0104758 -0.0692281 0.205218 0 0 -1.58855 0 0 0 0 0 0 0.01 
143 1 15 -0.0104758 -0.0692281 0.214218 0 0 -1.58855 0 0 0 0 0 0 0.01 
144 1 15 -0.0104758 -0.0692281 0.223218 0 0 -1.58855 0 0 0 0 0 0 0.01 
145 1 15 -0.0104758 -0.0692281 0.232218 0 0 -1.58855 0 0 0 0 0 0 0.01 
146 1 15 -0.0104758 -0.0692281 0.241218 0 0 -1.58855 0 0 0 0 0 0 0.01 
147 1 15 -0.0104758 -0.0692281 0.250218 0 0 -1.58855 0 0 0 0 0 0 0.01 
148 1 15 -0.0104758 -0.0692281 0.259218 0 0 -1.58855 0 0 0 0 0 0 0.01 
149 1 15 -0.0104758 -0.0692281 0.268218 0 0 -1.58855 0 0 0 0 0 0 0.01 
150 1 15 -0.0104758 -0.0692281 0.277218 0 0 -1.58855 0 0 0 0 0 0 0.01 
151 1 16 -0.0407462 0.176734 0.129701 0 0 -1.58855 0 0 0 0 0 0 0.01 
152 1 16 -0.0407462 0.176734 0.138701 0 0 -1.58855 0 0 0 0 0 0 0.01 
153 1 16 -0.0407462 0.176734 0.147701 0 0 -1.58855 0 0 0 0 0 0 0.01 
154 1 16 -0.0407462 0.176734 0.156701 0 0 -1.58855 0 0 0 0 0 0 0.01 
155 1 16 -0.0407462 0.176734 0.165701 0 0 -1.58855 0 0 0 0 0 0 0.01 
156 1 16 -0.0407462 0.176734 0.174701 0 0 -1.58855 0 0 0 0 0 0 0.01 
157 1 16 -0.0407462 0.176734 0.183701 0 0 -1.58855 0 0 0 0 0 0 0.01 
158 1 16 -0.0407462 0.176734 0.192701 0 0 -1.58855 0 0 0 0 0 0 0.01 
159 1 16 -0.0407462 0.176734 0.201701 0 0 -1.58855 0 0 0 0 0 0 0.01 
160 1 16 -0.0407462 0.176734 0.210701 0 0 -1.58855 0 0 0 0 0 0 0.01 
161 1 17 0.0731894 0.0923845 0.0298924 0 0 -1.58855 0 0 0 0 0 0 0.01 
162 1 17 0.0731894 0.0923845 0.0388924 0 0 -1.58855 0 0 0 0 0 0 0.01 
163 1 17 0.0731894 0.0923845 0.0478924 0 0 -1.58855 0 0 0 0 0 0 0.01 
164 1 17 0.0731894 0.0923845 0.0568924 0 0 -1.58855 0 0 0 0 0 0 0.01 
165 1 17 0.0731894 0.0923845 0.0658924 0 0 -1.58855 0 0 0 0 0 0 0.01 
166 1 17 0.0731894 0.0923845 0.0748924 0 0 -1.58855 0 0 0 0 0 0 0.01 
167 1 17 0.0731894 0.0923845 0.0838924 0 0 -1.58855 0 0 0 0 0 0 0.01 
168 1 17 0.0731894 0.0923845 0.0928924 0 0 -1.58855 0 0 0 0 0 0 0.01 
169 1 17 0.0731894 0.0923845 0.101892 0 0 -1.58855 0 0 0 0 0 0 0.01 
170 1 17 0.0731894 0.0923845 0.110892 0 0 -1.58855 0 0 0 0 0 0 0.01 
171 1 18 -0.23779 -0.0339416 0.232361 0 0 -1.58855 0 0 0 0 0 0 0.01 
172 1 18 -0.23779 -0.0339416 0.241361 0 0 -1.58855 0 0 0 0 0 0 0.01 
173 1 18 -0.23779 -0.0339416 0.250361 0 0 -1.58855 0 0 0 0 0 0 0.01 
174 1 18 -0.23779 -0.0339416 0.259361 0 0 -1.58855 0 0 0 0 0 0 0.01 
175 1 18 -0.23779 -0.0339416 0.268361 0 0 -1.58855 0 0 0 0 0 0 0.01 
176 1 18 -0.23779 -0.0339416 0.277361 0 0 -1.58855 0 0 0 0 0 0 0.01 
177 1 18 -0.23779 -0.0339416 0.286361 0 0 -1.58855 0 0 0 0 0 0 0.01 
178 1 18 -0.23779 -0.0339416 0.295361 0 0 -1.58855 0 0 0 0 0 0 0.01 
179 1 18 -0.23779 -0.0339416 0.304361 0 0 -1.58855 0 0 0 0 0 0 0.01 
180 1 18 -0.23779 -0.0339416 0.313361 0 0 -1.58855 0 0 0 0 0 0 0.01 
181 1 19 0.00334189 0.165527 0.209611 0 0 -1.58855 0 0 0 0 0 0 0.01 
182 1 19 0.00334189 0.165527 0.218611 0 0 -1.58855 0 0 0 0 0 0 0.01 
183 1 19 0.00334189 0.165527 0.227611 0 0 -1.58855 0 0 0 0 0 0 0.01 
184 1 19 0.00334189 0.165527 0.236611 0 0 -1.58855 0 0 0 0 0 0 0.01 
185 1 19 0.00334189 0.165527 0.245611 0 0 -1.58855 0 0 0 0 0 0 0.01 
186 1 19 0.00334189 0.165527 0.254611 0 0 -1.58855 0 0 0 0 0 0 0.01 
187 1 19 0.00334189 0.165527 0.263611 0 0 -1.58855 0 0 0 0 0 0 0.01 
188 1 19 0.00334189 0.165527 0.272611 0 0 -1.58855 0 0 0 0 0 0 0.01 
189 1 19 0.00334189 0.165527 0.281611 0 0 -1.58855 0 0 0 0 0 0 0.01 
190 1 19 0.00334189 0.165527 0.290611 0 0 -1.58855 0 0 0 0 0 0 0.01 
191 1 20 -0.00784268 0.186598 0.0135975 -1.37876e-06 0.000101597 0.317962 0 0 0 -0.00332817 -4.51666e-05 -2.31943e-06 0.01 
192 1 20 -0.00784269 0.186599 0.0225975 -1.78526e-06 0.00013155 0.317962 0 0 0 -0.00332817 -4.51666e-05 -2.31943e-06 0.01 
193 1 20 -0.0078427 0.186599 0.0315975 -2.19176e-06 0.000161504 0.317962 0 0 0 -0.00332817 -4.51666e-05 -2.31943e-06 0.01 
194 1 20 -0.0078427 0.186599 0.0405975 -2.59826e-06 0.000191457 0.317962 0 0 0 -0.00332817 -4.51666e-05 -2.31943e-06 0.01 
195 1 20 -0.00784271 0.1866 0.0495975 -3.00476e-06 0.000221411 0.317962 0 0 0 -0.00332817 -4.51666e-05 -2.31943e-06 0.01 
196 1 20 -0.00784271 0.1866 0.0585975 -3.41125e-06 0.000251364 0.317962 0 0 0 -0.00332817 -4.51666e-05 -2.31943e-06 0.01 
197 1 20 -0.00784272 0.186601 0.0675975 -3.81775e-06 0.000281318 0.317962 0 0 0 -0.00332817 -4.51666e-05 -2.31943e-06 0.01 
198 1 20 -0.00784273 0.186601 0.0765975 -4.22425e-06 0.000311271 0.317962 0 0 0 -0.00332817 -4.51666e-05 -2.31943e-06 0.01 
199 1 20 -0.00784273 0.186602 0.0855975 -4.63075e-06 0.000341225 0.317962 0 0 0 -0.00332817 -4.51666e-05 -2.31943e-06 0.01 
200 1 20 -0.00784274 0.186602 0.0945975 -5.03725e-06 0.000371178 0.317962 0 0 0 -0.00332817 -4.51666e-05 -2.31943e-06 0.01 
201 1 21 0.0194682 0.0037401 0.00987078 -0.00365102 0.00459263 0.158265 -0.242481 0.0790972 -2.03538 -0.796068 -1.29533 0.0625158 0.01 
202 1 21 0.019399 0.00378156 0.0188704 -0.0153111 0.0117526 0.158143 0 0 0 -0.796068 -1.29533 0.0625158 0.01 
203 1 21 0.0193299 0.00382301 0.0278701 -0.0269712 0.0189126 0.15802 0 0 0 -0.796068 -1.29533 0.0625158 0.01 
204 1 21 0.0192607 0.00386447 0.0368697 -0.0386313 0.0260726 0.157898 0 0 0 -0.796068 -1.29533 0.0625158 0.01 
205 1 21 0.0191916 0.00390593 0.0458693 -0.0502913 0.0332326 0.157775 0 0 0 -0.796068 -1.29533 0.0625158 0.01 
206 1 21 0.0191224 0.00394739 0.054869 -0.0619514 0.0403926 0.157652 0 0 0 -0.796068 -1.29533 0.0625158 0.01 
207 1 21 0.0190533 0.00398884 0.0638686 -0.0736115 0.0475526 0.15753 0 0 0 -0.796068 -1.29533 0.0625158 0.01 
208 1 21 0.0189841 0.0040303 0.0728683 -0.0852716 0.0547126 0.157407 0 0 0 -0.796068 -1.29533 0.0625158 0.01 
209 1 21 0.018915 0.00407176 0.0818679 -0.0969317 0.0618726 0.157285 0 0 0 -0.796068 -1.29533 0.0625158 0.01 
210 1 21 0.0188458 0.00411322 0.0908675 -0.108592 0.0690326 0.157162 -0.222167 0.0624198 1.54836 -0.796068 -1.29533 0.0625158 0.01 
211 1 22 0.00289755 0.197355 0.169618 0 0 -1.58855 0 0 0 0 0 0 0.01 
212 1 22 0.00289755 0.197355 0.178618 0 0 -1.58855 0 0 0 0 0 0 0.01 
213 1 22 0.00289755 0.197355 0.187618 0 0 -1.58855 0 0 0 0 0 0 0.01 
214 1 22 0.00289755 0.197355 0.196618 0 0 -1.58855 0 0 0 0 0 0 0.01 
215 1 22 0.00289755 0.197355 0.205618 0 0 -1.58855 0 0 0 0 0 0 0.01 
216 1 22 0.00289755 0.197355 0.214618 0 0 -1.58855 0 0 0 0 0 0 0.01 
217 1 22 0.00289755 0.197355 0.223618 0 0 -1.58855 0 0 0 0 0 0 0.01 
218 1 22 0.00289755 0.197355 0.232618 0 0 -1.58855 0 0 0 0 0 0 0.01 
219 1 22 0.00289755 0.197355 0.241618 0 0 -1.58855 0 0 0 0 0 0 0.01 
220 1 22 0.00289755 0.197355 0.250618 0 0 -1.58855 0 0 0 0 0 0 0.01 
221 1 23 0.214349 0.0539113 0.25915 0 0 -1.58855 0 0 0 0 0 0 0.01 
222 1 23 0.214349 0.0539113 0.26815 0 0 -1.58855 0 0 0 0 0 0 0.01 
223 1 23 0.214349 0.0539113 0.27715 0 0 -1.58855 0 0 0 0 0 0 0.01 
224 1 23 0.214349 0.0539113 0.28615 0 0 -1.58855 0 0 0 0 0 0 0.01 
225 1 23 0.214349 0.0539113 0.29515 0 0 -1.58855 0 0 0 0 0 0 0.01 
226 1 23 0.214349 0.0539113 0.30415 0 0 -1.58855 0 0 0 0 0 0 0.01 
227 1 23 0.214349 0.0539113 0.31315 0 0 -1.58855 0 0 0 0 0 0 0.01 
228 1 23 0.214349 0.0539113 0.32215 0 0 -1.58855 0 0 0 0 0 0 0.01 
229 1 23 0.214349 0.0539113 0.33115 0 0 -1.58855 0 0 0 0 0 0 0.01 
230 1 23 0.214349 0.0539113 0.34015 0 0 -1.58855 0 0 0 0 0 0 0.01 
231 1 24 0.157258 0.0254774 0.025604 0 0 -1.58855 0 0 0 0 0 0 0.01 
232 1 24 0.157258 0.0254774 0.034604 0 0 -1.58855 0 0 0 0 0 0 0.01 
233 1 24 0.157258 0.0254774 0.043604 0 0 -1.58855 0 0 0 0 0 0 0.01 
234 1 24 0.157258 0.0254774 0.052604 0 0 -1.58855 0 0 0 0 0 0 0.01 
235 1 24 0.157258 0.0254774 0.061604 0 0 -1.58855 0 0 0 0 0 0 0.01 
236 1 24 0.157258 0.0254774 0.070604 0 0 -1.58855 0 0 0 0 0 0 0.01 
237 1 24 0.157258 0.0254774 0.079604 0 0 -1.58855 0 0 0 0 0 0 0.01 
238 1 24 0.157258 0.0254774 0.088604 0 0 -1.58855 0 0 0 0 0 0 0.01 
239 1 24 0.157258 0.0254774 0.097604 0 0 -1.58855 0 0 0 0 0 0 0.01 
240 1 24 0.157258 0.0254774 0.106604 0 0 -1.58855 0 0 0 0 0 0 0.01 
241 1 25 0.134963 -0.174125 0.196974 0 0 -1.58855 0 0 0 0 0 0 0.01 
242 1 25 0.134963 -0.174125 0.205974 0 0 -1.58855 0 0 0 0 0 0 0.01 
243 1 25 0.134963 -0.174125 0.214974 0 0 -1.58855 0 0 0 0 0 0 0.01 
244 1 25 0.134963 -0.174125 0.223974 0 0 -1.58855 0 0 0 0 0 0 0.01 
245 1 25 0.134963 -0.174125 0.232974 0 0 -1.58855 0 0 0 0 0 0 0.01 
246 1 25 0.134963 -0.174125 0.241974 0 0 -1.58855 0 0 0 0 0 0 0.01 
247 1 25 0.134963 -0.174125 0.250974 0 0 -1.58855 0 0 0 0 0 0 0.01 
248 1 25 0.134963 -0.174125 0.259974 0 0 -1.58855 0 0 0 0 0 0 0.01 
249 1 25 0.134963 -0.174125 0.268974 0 0 -1.58855 0 0 0 0 0 0 0.01 
250 1 25 0.134963 -0.174125 0.277974 0 0 -1.58855 0 0 0 0 0 0 0.01 
251 1 26 -0.00920263 -0.17024 0.0706466 0 0 -1.58855 0 0 0 0 0 0 0.01 
252 1 26 -0.00920263 -0.17024 0.0796466 0 0 -1.58855 0 0 0 0 0 0 0.01 
253 1 26 -0.00920263 -0.17024 0.0886466 0 0 -1.58855 0 0 0 0 0 0 0.01 
254 1 26 -0.00920263 -0.17024 0.0976466 0 0 -1.58855 0 0 0 0 0 0 0.01 
255 1 26 -0.00920263 -0.17024 0.106647 0 0 -1.58855 0 0 0 0 0 0 0.01 
256 1 26 -0.00920263 -0.17024 0.115647 0 0 -1.58855 0 0 0 0 0 0 0.01 
257 1 26 -0.00920263 -0.17024 0.124647 0 0 -1.58855 0 0 0 0 0 0 0.01 
258 1 26 -0.00920263 -0.17024 0.133647 0 0 -1.58855 0 0 0 0 0 0 0.01 
259 1 26 -0.00920263 -0.17024 0.142647 0 0 -1.58855 0 0 0 0 0 0 0.01 
260 1 26 -0.00920263 -0.17024 0.151647 0 0 -1.58855 0 0 0 0 0 0 0.01 
261 1 27 -0.145674 0.150591 0.194164 0 0 -1.58855 0 0 0 0 0 0 0.01 
262 1 27 -0.145674 0.150591 0.203164 0 0 -1.58855 0 0 0 0 0 0 0.01 
263 1 27 -0.145674 0.150591 0.212164 0 0 -1.58855 0 0 0 0 0 0 0.01 
264 1 27 -0.145674 0.150591 0.221164 0 0 -1.58855 0 0 0 0 0 0 0.01 
265 1 27 -0.145674 0.150591 0.230164 0 0 -1.58855 0 0 0 0 0 0 0.01 
266 1 27 -0.145674 0.150591 0.239164 0 0 -1.58855 0 0 0 0 0 0 0.01 
267 1 27 -0.145674 0.150591 0.248164 0 0 -1.58855 0 0 0 0 0 0 0.01 
268 1 27 -0.145674 0.150591 0.257164 0 0 -1.58855 0 0 0 0 0 0 0.01 
269 1 27 -0.145674 0.150591 0.266164 0 0 -1.58855 0 0 0 0 0 0 0.01 
270 1 27 -0.145674 0.150591 0.275164 0 0 -1.58855 0 0 0 0 0 0 0.01 
271 1 28 0.0144186 -0.169101 0.154727 0 0 -1.58855 0 0 0 0 0 0 0.01 
272 1 28 0.0144186 -0.169101 0.163727 0 0 -1.58855 0 0 0 0 0 0 0.01 
273 1 28 0.0144186 -0.169101 0.172727 0 0 -1.58855 0 0 0 0 0 0 0.01 
274 1 28 0.0144186 -0.169101 0.181727 0 0 -1.58855 0 0 0 0 0 0 0.01 
275 1 28 0.0144186 -0.169101 0.190727 0 0 -1.58855 0 0 0 0 0 0 0.01 
276 1 28 0.0144186 -0.169101 0.199727 0 0 -1.58855 0 0 0 0 0 0 0.01 
277 1 28 0.0144186 -0.169101 0.208727 0 0 -1.58855 0 0 0 0 0 0 0.01 
278 1 28 0.0144186 -0.169101 0.217727 0 0 -1.58855 0 0 0 0 0 0 0.01 
279 1 28 0.0144186 -0.169101 0.226727 0 0 -1.58855 0 0 0 0 0 0 0.01 
280 1 28 0.0144186 -0.169101 0.235727 0 0 -1.58855 0 0 0 0 0 0 0.01 
281 1 29 0.0770886 0.126327 0.0133877 0 0 -1.58855 0 0 0 0 0 0 0.01 
282 1 29 0.0770886 0.126327 0.0223877 0 0 -1.58855 0 0 0 0 0 0 0.01 
283 1 29 0.0770886 0.126327 0.0313877 0 0 -1.58855 0 0 0 0 0 0 0.01 
284 1 29 0.0770886 0.126327 0.0403877 0 0 -1.58855 0 0 0 0 0 0 0.01 
285 1 29 0.0770886 0.126327 0.0493877 0 0 -1.58855 0 0 0 0 0 0 0.01 
286 1 29 0.0770886 0.126327 0.0583877 0 0 -1.58855 0 0 0 0 0 0 0.01 
287 1 29 0.0770886 0.126327 0.0673877 0 0 -1.58855 0 0 0 0 0 0 0.01 
288 1 29 0.0770886 0.126327 0.0763877 0 0 -1.58855 0 0 0 0 0 0 0.01 
289 1 29 0.0770886 0.126327 0.0853877 0 0 -1.58855 0 0 0 0 0 0 0.01 
290 1 29 0.0770886 0.126327 0.0943877 0 0 -1.58855 0 0 0 0 0 0 0.01 
291 1 30 -0.0622987 -0.0566083 0.256807 0 0 -1.58855 0 0 0 0 0 0 0.01 
292 1 30 -0.0622987 -0.0566083 0.265807 0 0 -1.58855 0 0 0 0 0 0 0.01 
293 1 30 -0.0622987 -0.0566083 0.274807 0 0 -1.58855 0 0 0 0 0 0 0.01 
294 1 30 -0.0622987 -0.0566083 0.283807 0 0 -1.58855 0 0 0 0 0 0 0.01 
295 1 30 -0.0622987 -0.0566083 0.292807 0 0 -1.58855 0 0 0 0 0 0 0.01 
296 1 30 -0.0622987 -0.0566083 0.301807 0 0 -1.58855 0 0 0 0 0 0 0.01 
297 1 30 -0.0622987 -0.0566083 0.310807 0 0 -1.58855 0 0 0 0 0 0 0.01 
298 1 30 -0.0622987 -0.0566083 0.319807 0 0 -1.58855 0 0 0 0 0 0 0.01 
299 1 30 -0.0622987 -0.0566083 0.328807 0 0 -1.58855 0 0 0 0 0 0 0.01 
300 1 30 -0.0622987 -0.0566083 0.337807 0 0 -1.58855 0 0 0 0 0 0 0.01 
301 1 31 0.0111005 0.0641792 0.0108173 -1.45778e-06 0.000107419 0.419134 0 0 0 -0.00350368 -4.75484e-05 -2.44175e-06 0.01 
302 1 31 0.0111005 0.0641795 0.0198173 -1.88571e-06 0.000138952 0.419134 0 0 0 -0.00350368 -4.75484e-05 -2.44175e-06 0.01 
303 1 31 0.0111005 0.0641797 0.0288173 -2.31365e-06 0.000170486 0.419134 0 0 0 -0.00350368 -4.75484e-05 -2.44175e-06 0.01 
304 1 31 0.0111005 0.0641799 0.0378173 -2.74158e-06 0.000202019 0.419134 0 0 0 -0.00350368 -4.75484e-05 -2.44175e-06 0.01 
305 1 31 0.0111005 0.0641801 0.0468173 -3.16952e-06 0.000233552 0.419134 0 0 0 -0.00350368 -4.75484e-05 -2.44175e-06 0.01 
306 1 31 0.0111005 0.0641804 0.0558173 -3.59745e-06 0.000265085 0.419134 0 0 0 -0.00350368 -4.75484e-05 -2.44175e-06 0.01 
307 1 31 0.0111005 0.0641806 0.0648173 -4.02539e-06 0.000296618 0.419134 0 0 0 -0.00350368 -4.75484e-05 -2.44175e-06 0.01 
308 1 31 0.0111005 0.0641808 0.0738173 -4.45333e-06 0.000328151 0.419134 0 0 0 -0.00350368 -4.75484e-05 -2.44175e-06 0.01 
309 1 31 0.0111005 0.0641811 0.0828173 -4.88126e-06 0.000359684 0.419134 0 0 0 -0.00350368 -4.75484e-05 -2.44175e-06 0.01 
310 1 31 0.0111005 0.0641813 0.0918173 -5.3092e-06 0.000391217 0.419134 0 0 0 -0.00350368 -4.75484e-05 -2.44175e-06 0.01 
311 1 32 0.0320384 -0.0315173 0.0800527 0 0 -1.58855 0 0 0 0 0 0 0.01 
312 1 32 0.0320384 -0.0315173 0.0890527 0 0 -1.58855 0 0 0 0 0 0 0.01 
313 1 32 0.0320384 -0.0315173 0.0980527 0 0 -1.58855 0 0 0 0 0 0 0.01 
314 1 32 0.0320384 -0.0315173 0.107053 0 0 -1.58855 0 0 0 0 0 0 0.01 
315 1 32 0.0320384 -0.0315173 0.116053 0 0 -1.58855 0 0 0 0 0 0 0.01 
316 1 32 0.0320384 -0.0315173 0.125053 0 0 -1.58855 0 0 0 0 0 0 0.01 
317 1 32 0.0320384 -0.0315173 0.134053 0 0 -1.58855 0 0 0 0 0 0 0.01 
318 1 32 0.0320384 -0.0315173 0.143053 0 0 -1.58855 0 0 0 0 0 0 0.01 
319 1 32 0.0320384 -0.0315173 0.152053 0 0 -1.58855 0 0 0 0 0 0 0.01 
320 1 32 0.0320384 -0.0315173 0.161053 0 0 -1.58855 0 0 0 0 0 0 0.01 
321 1 33 -0.164367 -0.0225208 0.202309 0 0 -1.58855 0 0 0 0 0 0 0.01 
322 1 33 -0.164367 -0.0225208 0.211309 0 0 -1.58855 0 0 0 0 0 0 0.01 
323 1 33 -0.164367 -0.0225208 0.220309 0 0 -1.58855 0 0 0 0 0 0 0.01 
324 1 33 -0.164367 -0.0225208 0.229309 0 0 -1.58855 0 0 0 0 0 0 0.01 
325 1 33 -0.164367 -0.0225208 0.238309 0 0 -1.58855 0 0 0 0 0 0 0.01 
326 1 33 -0.164367 -0.0225208 0.247309 0 0 -1.58855 0 0 0 0 0 0 0.01 
327 1 33 -0.164367 -0.0225208 0.256309 0 0 -1.58855 0 0 0 0 0 0 0.01 
328 1 33 -0.164367 -0.0225208 0.265309 0 0 -1.58855 0 0 0 0 0 0 0.01 
329 1 33 -0.164367 -0.0225208 0.274309 0 0 -1.58855 0 0 0 0 0 0 0.01 
330 1 33 -0.164367 -0.0225208 0.283309 0 0 -1.58855 0 0 0 0 0 0 0.01 
331 1 34 -0.0753724 0.213735 0.052913 0 0 -1.58855 0 0 0 0 0 0 0.01 
332 1 34 -0.0753724 0.213735 0.061913 0 0 -1.58855 0 0 0 0 0 0 0.01 
333 1 34 -0.0753724 0.213735 0.070913 0 0 -1.58855 0 0 0 0 0 0 0.01 
334 1 34 -0.0753724 0.213735 0.079913 0 0 -1.58855 0 0 0 0 0 0 0.01 
335 1 34 -0.0753724 0.213735 0.088913 0 0 -1.58855 0 0 0 0 0 0 0.01 
336 1 34 -0.0753724 0.213735 0.097913 0 0 -1.58855 0 0 0 0 0 0 0.01 
337 1 34 -0.0753724 0.213735 0.106913 0 0 -1.58855 0 0 0 0 0 0 0.01 
338 1 34 -0.0753724 0.213735 0.115913 0 0 -1.58855 0 0 0 0 0 0 0.01 
339 1 34 -0.0753724 0.213735 0.124913 0 0 -1.58855 0 0 0 0 0 0 0.01 
340 1 34 -0.0753724 0.213735 0.133913 0 0 -1.58855 0 0 0 0 0 0 0.01 
341 1 35 0.107324 -0.21107 0.232976 0 0 -1.58855 0 0 0 0 0 0 0.01 
342 1 35 0.107324 -0.21107 0.241976 0 0 -1.58855 0 0 0 0 0 0 0.01 
343 1 35 0.107324 -0.21107 0.250976 0 0 -1.58855 0 0 0 0 0 0 0.01 
344 1 35 0.107324 -0.21107 0.259976 0 0 -1.58855 0 0 0 0 0 0 0.01 
345 1 35 0.107324 -0.21107 0.268976 0 0 -1.58855 0 0 0 0 0 0 0.01 
346 1 35 0.107324 -0.21107 0.277976 0 0 -1.58855 0 0 0 0 0 0 0.01 
347 1 35 0.107324 -0.21107 0.286976 0 0 -1.58855 0 0 0 0 0 0 0.01 
348 1 35 0.107324 -0.21107 0.295976 0 0 -1.58855 0 0 0 0 0 0 0.01 
349 1 35 0.107324 -0.21107 0.304976 0 0 -1.58855 0 0 0 0 0 0 0.01 
350 1 35 0.107324 -0.21107 0.313976 0 0 -1.58855 0 0 0 0 0 0 0.01 
351 1 36 -0.0369915 -0.217979 0.166115 0 0 -1.58855 0 0 0 0 0 0 0.01 
352 1 36 -0.0369915 -0.217979 0.175115 0 0 -1.58855 0 0 0 0 0 0 0.01 
353 1 36 -0.0369915 -0.217979 0.184115 0 0 -1.58855 0 0 0 0 0 0 0.01 
354 1 36 -0.0369915 -0.217979 0.193115 0 0 -1.58855 0 0 0 0 0 0 0.01 
355 1 36 -0.0369915 -0.217979 0.202115 0 0 -1.58855 0 0 0 0 0 0 0.01 
356 1 36 -0.0369915 -0.217979 0.211115 0 0 -1.58855 0 0 0 0 0 0 0.01 
357 1 36 -0.0369915 -0.217979 0.220115 0 0 -1.58855 0 0 0 0 0 0 0.01 
358 1 36 -0.0369915 -0.217979 0.229115 0 0 -1.58855 0 0 0 0 0 0 0.01 
359 1 36 -0.0369915 -0.217979 0.238115 0 0 -1.58855 0 0 0 0 0 0 0.01 
360 1 36 -0.0369915 -0.217979 0.247115 0 0 -1.58855 0 0 0 0 0 0 0.01 
361 1 37 0.0719128 0.13673 0.215851 0 0 -1.58855 0 0 0 0 0 0 0.01 
362 1 37 0.0719128 0.13673 0.224851 0 0 -1.58855 0 0 0 0 0 0 0.01 
363 1 37 0.0719128 0.13673 0.233851 0 0 -1.58855 0 0 0 0 0 0 0.01 
364 1 37 0.0719128 0.13673 0.242851 0 0 -1.58855 0 0 0 0 0 0 0.01 
365 1 37 0.0719128 0.13673 0.251851 0 0 -1.58855 0 0 0 0 0 0 0.01 
366 1 37 0.0719128 0.13673 0.260851 0 0 -1.58855 0 0 0 0 0 0 0.01 
367 1 37 0.0719128 0.13673 0.269851 0 0 -1.58855 0 0 0 0 0 0 0.01 
368 1 37 0.0719128 0.13673 0.278851 0 0 -1.58855 0 0 0 0 0 0 0.01 
369 1 37 0.0719128 0.13673 0.287851 0 0 -1.58855 0 0 0 0 0 0 0.01 
370 1 37 0.0719128 0.13673 0.296851 0 0 -1.58855 0 0 0 0 0 0 0.01 
371 1 38 -0.156963 -0.0782603 0.0143983 0 0 -1.58855 0 0 0 0 0 0 0.01 
372 1 38 -0.156963 -0.0782603 0.0233983 0 0 -1.58855 0 0 0 0 0 0 0.01 
373 1 38 -0.156963 -0.0782603 0.0323983 0 0 -1.58855 0 0 0 0 0 0 0.01 
374 1 38 -0.156963 -0.0782603 0.0413983 0 0 -1.58855 0 0 0 0 0 0 0.01 
375 1 38 -0.156963 -0.0782603 0.0503983 0 0 -1.58855 0 0 0 0 0 0 0.01 
376 1 38 -0.156963 -0.0782603 0.0593983 0 0 -1.58855 0 0 0 0 0 0 0.01 
377 1 38 -0.156963 -0.0782603 0.0683983 0 0 -1.58855 0 0 0 0 0 0 0.01 
378 1 38 -0.156963 -0.0782603 0.0773983 0 0 -1.58855 0 0 0 0 0 0 0.01 
379 1 38 -0.156963 -0.0782603 0.0863983 0 0 -1.58855 0 0 0 0 0 0 0.01 
380 1 38 -0.156963 -0.0782603 0.0953983 0 0 -1.58855 0 0 0 0 0 0 0.01 
381 1 39 -0.132731 0.194202 0.174912 0 0 -1.58855 0 0 0 0 0 0 0.01 
382 1 39 -0.132731 0.194202 0.183912 0 0 -1.58855 0 0 0 0 0 0 0.01 
383 1 39 -0.132731 0.194202 0.192912 0 0 -1.58855 0 0 0 0 0 0 0.01 
384 1 39 -0.132731 0.194202 0.201912 0 0 -1.58855 0 0 0 0 0 0 0.01 
385 1 39 -0.132731 0.194202 0.210912 0 0 -1.58855 0 0 0 0 0 0 0.01 
386 1 39 -0.132731 0.194202 0.219912 0 0 -1.58855 0 0 0 0 0 0 0.01 
387 1 39 -0.132731 0.194202 0.228912 0 0 -1.58855 0 0 0 0 0 0 0.01 
388 1 39 -0.132731 0.194202 0.237912 0 0 -1.58855 0 0 0 0 0 0 0.01 
389 1 39 -0.132731 0.194202 0.246912 0 0 -1.58855 0 0 0 0 0 0 0.01 
390 1 39 -0.132731 0.194202 0.255912 0 0 -1.58855 0 0 0 0 0 0 0.01 
391 1 40 0.0157305 -0.119676 0.274115 0 0 -1.58855 0 0 0 0 0 0 0.01 
392 1 40 0.0157305 -0.119676 0.283115 0 0 -1.58855 0 0 0 0 0 0 0.01 
393 1 40 0.0157305 -0.119676 0.292115 0 0 -1.58855 0 0 0 0 0 0 0.01 
394 1 40 0.0157305 -0.119676 0.301115 0 0 -1.58855 0 0 0 0 0 0 0.01 