ITEM: TIMESTEP
23000
ITEM: NUMBER OF ATOMS
6300
ITEM: BOX BOUNDS mm mm mm
-0.339104 0.329996
-0.309983 0.34968
0 0.5
ITEM: ATOMS id type mol x y z vx vy vz fx fy fz omegax omegay omegaz radius 
1 1 1 -0.1204 -0.117483 0.0957008 -0.105878 0.0977866 -0.211895 -0.026205 0.0559672 0.0911011 4.38685 0.438348 1.25616 0.01 
2 1 1 -0.120407 -0.11914 0.104547 -0.0999188 0.058971 -0.21916 0 0 0 4.38685 0.438348 1.25616 0.01 
3 1 1 -0.120414 -0.120797 0.113393 -0.0939598 0.0201553 -0.226425 0 0 0 4.38685 0.438348 1.25616 0.01 
4 1 1 -0.120421 -0.122453 0.122239 -0.0880009 -0.0186604 -0.23369 0 0 0 4.38685 0.438348 1.25616 0.01 
5 1 1 -0.120428 -0.12411 0.131085 -0.082042 -0.057476 -0.240955 0 0 0 4.38685 0.438348 1.25616 0.01 
6 1 1 -0.120435 -0.125767 0.139932 -0.076083 -0.0962917 -0.24822 0 0 0 4.38685 0.438348 1.25616 0.01 
7 1 1 -0.120442 -0.127424 0.148778 -0.0701241 -0.135107 -0.255486 -0.665074 0.321742 0.354874 4.38685 0.438348 1.25616 0.01 
8 1 1 -0.120449 -0.129081 0.157624 -0.0641651 -0.173923 -0.262751 -0.00935724 -0.153097 -0.102253 4.38685 0.438348 1.25616 0.01 
9 1 1 -0.120456 -0.130737 0.16647 -0.0582062 -0.212739 -0.270016 0 0 0 4.38685 0.438348 1.25616 0.01 
10 1 1 -0.120463 -0.132394 0.175316 -0.0522472 -0.251554 -0.277281 0 0 0 4.38685 0.438348 1.25616 0.01 
11 1 2 -0.0225048 -0.116097 0.0403126 0.0229213 -0.148545 -0.0496376 0.112741 0.434944 0.604071 -0.778512 -0.773442 3.88885 0.01 
12 1 2 -0.0244364 -0.11588 0.0491002 0.0152833 -0.149215 -0.0512999 0 0 0 -0.778512 -0.773442 3.88885 0.01 
13 1 2 -0.0263679 -0.115664 0.0578879 0.00764534 -0.149885 -0.0529623 0 0 0 -0.778512 -0.773442 3.88885 0.01 
14 1 2 -0.0282994 -0.115448 0.0666755 7.36441e-06 -0.150556 -0.0546246 0 0 0 -0.778512 -0.773442 3.88885 0.01 
15 1 2 -0.030231 -0.115231 0.0754631 -0.00763061 -0.151226 -0.056287 0 0 0 -0.778512 -0.773442 3.88885 0.01 
16 1 2 -0.0321625 -0.115015 0.0842507 -0.0152686 -0.151896 -0.0579493 0.239029 -0.773585 0.508434 -0.778512 -0.773442 3.88885 0.01 
17 1 2 -0.034094 -0.114799 0.0930384 -0.0229066 -0.152566 -0.0596116 0.125022 -0.000862095 0.141214 -0.778512 -0.773442 3.88885 0.01 
18 1 2 -0.0360256 -0.114582 0.101826 -0.0305445 -0.153236 -0.061274 0 0 0 -0.778512 -0.773442 3.88885 0.01 
19 1 2 -0.0379571 -0.114366 0.110614 -0.0381825 -0.153906 -0.0629363 0 0 0 -0.778512 -0.773442 3.88885 0.01 
20 1 2 -0.0398886 -0.11415 0.119401 -0.0458205 -0.154576 -0.0645987 -0.375858 0.757112 -0.859797 -0.778512 -0.773442 3.88885 0.01 
21 1 3 -0.0278568 -0.0337439 0.00996362 -0.0309811 0.00284968 0.00420379 -0.0598905 -0.00321743 0.119954 -0.586029 -4.33134 6.23084 0.01 
22 1 3 -0.030577 -0.0382695 0.0172519 -0.0343506 -0.00982812 -0.00492604 0 0 0 -0.586029 -4.33134 6.23084 0.01 
23 1 3 -0.0332972 -0.0427952 0.0245402 -0.0377201 -0.0225059 -0.0140559 0 0 0 -0.586029 -4.33134 6.23084 0.01 
24 1 3 -0.0360174 -0.0473208 0.0318285 -0.0410895 -0.0351837 -0.0231857 0 0 0 -0.586029 -4.33134 6.23084 0.01 
25 1 3 -0.0387375 -0.0518465 0.0391168 -0.044459 -0.0478615 -0.0323155 0 0 0 -0.586029 -4.33134 6.23084 0.01 
26 1 3 -0.0414577 -0.0563721 0.0464051 -0.0478285 -0.0605393 -0.0414453 0 0 0 -0.586029 -4.33134 6.23084 0.01 
27 1 3 -0.0441779 -0.0608978 0.0536934 -0.051198 -0.0732171 -0.0505752 0 0 0 -0.586029 -4.33134 6.23084 0.01 
28 1 3 -0.046898 -0.0654234 0.0609817 -0.0545675 -0.0858949 -0.059705 0 0 0 -0.586029 -4.33134 6.23084 0.01 
29 1 3 -0.0496182 -0.0699491 0.06827 -0.057937 -0.0985727 -0.0688348 0 0 0 -0.586029 -4.33134 6.23084 0.01 
30 1 3 -0.0523384 -0.0744747 0.0755582 -0.0613065 -0.111251 -0.0779646 -0.189751 -0.0159166 0.268596 -0.586029 -4.33134 6.23084 0.01 
31 1 4 -0.0885692 0.112868 0.0099162 -0.0175733 0.0193179 -0.00198656 -0.012378 0.253565 0.678458 -2.59913 -1.52313 -0.585891 0.01 
32 1 4 -0.089145 0.115592 0.0184748 -0.0290132 0.0419001 -0.00994323 0 0 0 -2.59913 -1.52313 -0.585891 0.01 
33 1 4 -0.0897208 0.118315 0.0270333 -0.0404531 0.0644822 -0.0178999 0 0 0 -2.59913 -1.52313 -0.585891 0.01 
34 1 4 -0.0902965 0.121039 0.0355919 -0.051893 0.0870643 -0.0258566 0 0 0 -2.59913 -1.52313 -0.585891 0.01 
35 1 4 -0.0908723 0.123763 0.0441505 -0.0633329 0.109646 -0.0338132 0 0 0 -2.59913 -1.52313 -0.585891 0.01 
36 1 4 -0.0914481 0.126487 0.052709 -0.0747728 0.132229 -0.0417699 0 0 0 -2.59913 -1.52313 -0.585891 0.01 
37 1 4 -0.0920239 0.129211 0.0612676 -0.0862127 0.154811 -0.0497266 0 0 0 -2.59913 -1.52313 -0.585891 0.01 
38 1 4 -0.0925996 0.131935 0.0698261 -0.0976526 0.177393 -0.0576832 0 0 0 -2.59913 -1.52313 -0.585891 0.01 
39 1 4 -0.0931754 0.134659 0.0783847 -0.109093 0.199975 -0.0656399 -0.0185136 -0.0328211 0.00568371 -2.59913 -1.52313 -0.585891 0.01 
40 1 4 -0.0937512 0.137382 0.0869433 -0.120532 0.222557 -0.0735966 -0.014761 0.281477 0.41477 -2.59913 -1.52313 -0.585891 0.01 
41 1 5 0.0790866 -0.134841 0.00987678 0.00579706 -0.00423311 -0.0032302 -0.775622 0.141192 1.46736 0.507338 1.2289 4.26262 0.01 
42 1 5 0.0797426 -0.133444 0.0187435 0.0107398 -0.00593548 -0.0033277 0 0 0 0.507338 1.2289 4.26262 0.01 
43 1 5 0.0803985 -0.132047 0.0276103 0.0156825 -0.00763785 -0.00342519 0.251437 0.0561009 -0.0526296 0.507338 1.2289 4.26262 0.01 
44 1 5 0.0810545 -0.130651 0.036477 0.0206252 -0.00934022 -0.00352269 0.905196 0.0402057 -0.365134 0.507338 1.2289 4.26262 0.01 
45 1 5 0.0817104 -0.129254 0.0453437 0.0255679 -0.0110426 -0.00362018 0 0 0 0.507338 1.2289 4.26262 0.01 
46 1 5 0.0823664 -0.127857 0.0542105 0.0305106 -0.012745 -0.00371768 0 0 0 0.507338 1.2289 4.26262 0.01 
47 1 5 0.0830223 -0.126461 0.0630772 0.0354533 -0.0144473 -0.00381517 0 0 0 0.507338 1.2289 4.26262 0.01 
48 1 5 0.0836783 -0.125064 0.0719439 0.040396 -0.0161497 -0.00391267 0 0 0 0.507338 1.2289 4.26262 0.01 
49 1 5 0.0843342 -0.123667 0.0808107 0.0453388 -0.0178521 -0.00401016 -0.207695 -0.00362487 0.0929948 0.507338 1.2289 4.26262 0.01 
50 1 5 0.0849902 -0.12227 0.0896774 0.0502815 -0.0195544 -0.00410766 -0.214143 -0.110907 -0.32278 0.507338 1.2289 4.26262 0.01 
51 1 6 0.177579 -0.0367721 0.0104247 0.0986486 0.137038 -0.0399497 0 0 0 7.58432 -0.707037 -4.40636 0.01 
52 1 6 0.173191 -0.0400779 0.0175532 0.0790418 0.102309 -0.0681247 0 0 0 7.58432 -0.707037 -4.40636 0.01 
53 1 6 0.168802 -0.0433838 0.0246817 0.0594351 0.0675797 -0.0962998 0 0 0 7.58432 -0.707037 -4.40636 0.01 
54 1 6 0.164414 -0.0466896 0.0318102 0.0398283 0.0328507 -0.124475 0 0 0 7.58432 -0.707037 -4.40636 0.01 
55 1 6 0.160026 -0.0499954 0.0389387 0.0202215 -0.00187822 -0.15265 0 0 0 7.58432 -0.707037 -4.40636 0.01 
56 1 6 0.155638 -0.0533012 0.0460672 0.000614759 -0.0366071 -0.180825 0 0 0 7.58432 -0.707037 -4.40636 0.01 
57 1 6 0.15125 -0.056607 0.0531957 -0.018992 -0.0713361 -0.209 0 0 0 7.58432 -0.707037 -4.40636 0.01 
58 1 6 0.146861 -0.0599129 0.0603242 -0.0385988 -0.106065 -0.237175 0 0 0 7.58432 -0.707037 -4.40636 0.01 
59 1 6 0.142473 -0.0632187 0.0674527 -0.0582055 -0.140794 -0.26535 0 0 0 7.58432 -0.707037 -4.40636 0.01 
60 1 6 0.138085 -0.0665245 0.0745812 -0.0778123 -0.175523 -0.293525 -0.267888 1.10356 0.258755 7.58432 -0.707037 -4.40636 0.01 
61 1 7 -0.0388911 0.218099 0.00990304 0.0203657 0.0410176 -0.00116793 -0.0103965 0.0215066 0.820532 -4.11631 1.99008 1.50207 0.01 
62 1 7 -0.0383685 0.218483 0.0188796 0.0376524 0.0787529 -0.00379046 0 0 0 -4.11631 1.99008 1.50207 0.01 
63 1 7 -0.0378459 0.218868 0.0278562 0.0549391 0.116488 -0.006413 0 0 0 -4.11631 1.99008 1.50207 0.01 
64 1 7 -0.0373233 0.219252 0.0368328 0.0722258 0.154224 -0.00903554 0 0 0 -4.11631 1.99008 1.50207 0.01 
65 1 7 -0.0368007 0.219637 0.0458094 0.0895125 0.191959 -0.0116581 0 0 0 -4.11631 1.99008 1.50207 0.01 
66 1 7 -0.0362781 0.220021 0.054786 0.106799 0.229694 -0.0142806 0 0 0 -4.11631 1.99008 1.50207 0.01 
67 1 7 -0.0357555 0.220406 0.0637626 0.124086 0.26743 -0.0169031 -0.0526173 -0.0105584 -0.161245 -4.11631 1.99008 1.50207 0.01 
68 1 7 -0.0352329 0.22079 0.0727391 0.141373 0.305165 -0.0195257 0 0 0 -4.11631 1.99008 1.50207 0.01 
69 1 7 -0.0347104 0.221175 0.0817157 0.158659 0.3429 -0.0221482 0 0 0 -4.11631 1.99008 1.50207 0.01 
70 1 7 -0.0341878 0.221559 0.0906923 0.175946 0.380636 -0.0247708 0 0 0 -4.11631 1.99008 1.50207 0.01 
71 1 8 0.131901 -0.1418 0.106782 0.0571553 -0.163562 -0.0481077 0.107467 0.00456058 0.380319 -1.39168 4.13561 -1.98615 0.01 
72 1 8 0.134615 -0.141501 0.115357 0.0932162 -0.157018 -0.0597495 0 0 0 -1.39168 4.13561 -1.98615 0.01 
73 1 8 0.13733 -0.141201 0.123933 0.129277 -0.150474 -0.0713912 0 0 0 -1.39168 4.13561 -1.98615 0.01 
74 1 8 0.140044 -0.140902 0.132509 0.165338 -0.14393 -0.0830329 0 0 0 -1.39168 4.13561 -1.98615 0.01 
75 1 8 0.142758 -0.140602 0.141085 0.201399 -0.137386 -0.0946747 0 0 0 -1.39168 4.13561 -1.98615 0.01 
76 1 8 0.145472 -0.140302 0.14966 0.23746 -0.130842 -0.106316 0 0 0 -1.39168 4.13561 -1.98615 0.01 
77 1 8 0.148186 -0.140003 0.158236 0.273521 -0.124298 -0.117958 0 0 0 -1.39168 4.13561 -1.98615 0.01 
78 1 8 0.150901 -0.139703 0.166812 0.309582 -0.117754 -0.1296 0 0 0 -1.39168 4.13561 -1.98615 0.01 
79 1 8 0.153615 -0.139404 0.175388 0.345643 -0.111211 -0.141242 0 0 0 -1.39168 4.13561 -1.98615 0.01 
80 1 8 0.156329 -0.139104 0.183963 0.381704 -0.104667 -0.152883 0 0 0 -1.39168 4.13561 -1.98615 0.01 
81 1 9 -0.126221 0.0379729 0.0942879 -0.0921398 0.214707 -0.466763 -0.334566 0.355285 2.17247 3.335 7.28749 1.43824 0.01 
82 1 9 -0.120916 0.036265 0.101354 -0.0381871 0.198771 -0.511123 0 0 0 3.335 7.28749 1.43824 0.01 
83 1 9 -0.11561 0.0345571 0.108421 0.0157655 0.182835 -0.555484 0 0 0 3.335 7.28749 1.43824 0.01 
84 1 9 -0.110305 0.0328491 0.115487 0.0697182 0.166899 -0.599844 0 0 0 3.335 7.28749 1.43824 0.01 
85 1 9 -0.104999 0.0311412 0.122553 0.123671 0.150964 -0.644204 0 0 0 3.335 7.28749 1.43824 0.01 
86 1 9 -0.0996934 0.0294332 0.12962 0.177624 0.135028 -0.688564 0 0 0 3.335 7.28749 1.43824 0.01 
87 1 9 -0.0943878 0.0277253 0.136686 0.231576 0.119092 -0.732925 0 0 0 3.335 7.28749 1.43824 0.01 
88 1 9 -0.0890822 0.0260173 0.143753 0.285529 0.103156 -0.777285 0 0 0 3.335 7.28749 1.43824 0.01 
89 1 9 -0.0837767 0.0243094 0.150819 0.339482 0.0872206 -0.821645 0 0 0 3.335 7.28749 1.43824 0.01 
90 1 9 -0.0784711 0.0226015 0.157885 0.393434 0.0712848 -0.866005 0 0 0 3.335 7.28749 1.43824 0.01 
91 1 10 0.0601719 0.205274 0.109415 -0.0158086 0.177778 -0.0467418 0.167087 0.121054 0.465968 -5.90002 -1.18646 14.0099 0.01 
92 1 10 0.0573242 0.20679 0.117817 -0.0470184 0.187453 -0.0590658 -0.082088 -0.0162877 -0.0599144 -5.90002 -1.18646 14.0099 0.01 
93 1 10 0.0544765 0.208306 0.126219 -0.0782282 0.197129 -0.0713899 0.0773129 -0.0183959 -0.0193032 -5.90002 -1.18646 14.0099 0.01 
94 1 10 0.0516288 0.209822 0.134621 -0.109438 0.206804 -0.0837139 0 0 0 -5.90002 -1.18646 14.0099 0.01 
95 1 10 0.0487811 0.211339 0.143023 -0.140648 0.216479 -0.096038 0 0 0 -5.90002 -1.18646 14.0099 0.01 
96 1 10 0.0459334 0.212855 0.151425 -0.171858 0.226154 -0.108362 0 0 0 -5.90002 -1.18646 14.0099 0.01 
97 1 10 0.0430857 0.214371 0.159827 -0.203068 0.235829 -0.120686 0 0 0 -5.90002 -1.18646 14.0099 0.01 
98 1 10 0.040238 0.215887 0.168229 -0.234277 0.245505 -0.13301 0 0 0 -5.90002 -1.18646 14.0099 0.01 
99 1 10 0.0373903 0.217403 0.17663 -0.265487 0.25518 -0.145334 -0.178879 -0.294887 -0.11888 -5.90002 -1.18646 14.0099 0.01 
100 1 10 0.0345426 0.218919 0.185032 -0.296697 0.264855 -0.157658 2.3422 -1.27083 -0.158368 -5.90002 -1.18646 14.0099 0.01 
101 1 11 -0.226748 -0.0916486 0.0364566 -0.38655 0.069132 -0.654124 0 0 0 -0.16669 2.65715 -15.0449 0.01 
102 1 11 -0.224727 -0.0931162 0.0451032 -0.385655 0.0401744 -0.659248 0.0053952 0.303988 0.159084 -0.16669 2.65715 -15.0449 0.01 
103 1 11 -0.222707 -0.0945839 0.0537497 -0.38476 0.0112167 -0.664372 0 0 0 -0.16669 2.65715 -15.0449 0.01 
104 1 11 -0.220686 -0.0960515 0.0623963 -0.383865 -0.017741 -0.669496 0 0 0 -0.16669 2.65715 -15.0449 0.01 
105 1 11 -0.218666 -0.0975192 0.0710429 -0.382971 -0.0466986 -0.674621 0 0 0 -0.16669 2.65715 -15.0449 0.01 
106 1 11 -0.216645 -0.0989868 0.0796895 -0.382076 -0.0756563 -0.679745 -0.738174 -0.539565 0.83053 -0.16669 2.65715 -15.0449 0.01 
107 1 11 -0.214625 -0.100454 0.0883361 -0.381181 -0.104614 -0.684869 0 0 0 -0.16669 2.65715 -15.0449 0.01 
108 1 11 -0.212604 -0.101922 0.0969827 -0.380287 -0.133572 -0.689994 0 0 0 -0.16669 2.65715 -15.0449 0.01 
109 1 11 -0.210583 -0.10339 0.105629 -0.379392 -0.162529 -0.695118 0 0 0 -0.16669 2.65715 -15.0449 0.01 
110 1 11 -0.208563 -0.104857 0.114276 -0.378497 -0.191487 -0.700242 -0.0394983 0.0325107 0.168448 -0.16669 2.65715 -15.0449 0.01 
111 1 12 0.10326 0.05327 0.0858035 0.203195 -0.0251403 -0.617414 0 0 0 -4.5042 -6.00659 -8.224 0.01 
112 1 12 0.104969 0.0555441 0.0943421 0.170609 -0.000737962 -0.617389 0 0 0 -4.5042 -6.00659 -8.224 0.01 
113 1 12 0.106678 0.0578181 0.102881 0.138023 0.0236644 -0.617365 0 0 0 -4.5042 -6.00659 -8.224 0.01 
114 1 12 0.108387 0.0600921 0.111419 0.105437 0.0480668 -0.617341 0 0 0 -4.5042 -6.00659 -8.224 0.01 
115 1 12 0.110097 0.0623662 0.119958 0.0728505 0.0724691 -0.617317 0 0 0 -4.5042 -6.00659 -8.224 0.01 
116 1 12 0.111806 0.0646402 0.128496 0.0402645 0.0968715 -0.617293 -0.436646 -0.0647279 0.231135 -4.5042 -6.00659 -8.224 0.01 
117 1 12 0.113515 0.0669143 0.137035 0.00767852 0.121274 -0.617269 0 0 0 -4.5042 -6.00659 -8.224 0.01 
118 1 12 0.115225 0.0691883 0.145573 -0.0249075 0.145676 -0.617244 0 0 0 -4.5042 -6.00659 -8.224 0.01 
119 1 12 0.116934 0.0714623 0.154112 -0.0574935 0.170079 -0.61722 0 0 0 -4.5042 -6.00659 -8.224 0.01 
120 1 12 0.118643 0.0737364 0.162651 -0.0900795 0.194481 -0.617196 0 0 0 -4.5042 -6.00659 -8.224 0.01 
121 1 13 -0.00870462 0.239969 0.0934685 0.0636418 0.182204 -0.449091 0 0 0 -5.21204 -11.5746 13.1366 0.01 
122 1 13 -0.0122058 0.23593 0.100709 0.0328909 0.17395 -0.468564 0 0 0 -5.21204 -11.5746 13.1366 0.01 
123 1 13 -0.0157069 0.231891 0.10795 0.00213992 0.165697 -0.488037 0 0 0 -5.21204 -11.5746 13.1366 0.01 
124 1 13 -0.019208 0.227852 0.115191 -0.028611 0.157443 -0.50751 0 0 0 -5.21204 -11.5746 13.1366 0.01 
125 1 13 -0.0227092 0.223813 0.122432 -0.059362 0.149189 -0.526983 0 0 0 -5.21204 -11.5746 13.1366 0.01 
126 1 13 -0.0262103 0.219774 0.129672 -0.0901129 0.140935 -0.546456 0 0 0 -5.21204 -11.5746 13.1366 0.01 
127 1 13 -0.0297114 0.215735 0.136913 -0.120864 0.132681 -0.565929 0 0 0 -5.21204 -11.5746 13.1366 0.01 
128 1 13 -0.0332126 0.211696 0.144154 -0.151615 0.124428 -0.585402 0 0 0 -5.21204 -11.5746 13.1366 0.01 
129 1 13 -0.0367137 0.207657 0.151395 -0.182366 0.116174 -0.604875 0 0 0 -5.21204 -11.5746 13.1366 0.01 
130 1 13 -0.0402149 0.203618 0.158636 -0.213117 0.10792 -0.624348 0 0 0 -5.21204 -11.5746 13.1366 0.01 
131 1 14 -0.0465783 0.123282 0.00974952 -0.0167819 0.0770471 0.0433225 0.327048 0.461607 2.26013 -6.78511 -2.57762 -13.7261 0.01 
132 1 14 -0.0446691 0.125921 0.0181395 -0.00218811 0.107768 0.0303394 0 0 0 -6.78511 -2.57762 -13.7261 0.01 
133 1 14 -0.0427599 0.12856 0.0265295 0.0124057 0.138489 0.0173562 0 0 0 -6.78511 -2.57762 -13.7261 0.01 
134 1 14 -0.0408507 0.131198 0.0349195 0.0269995 0.169211 0.00437311 0 0 0 -6.78511 -2.57762 -13.7261 0.01 
135 1 14 -0.0389415 0.133837 0.0433095 0.0415933 0.199932 -0.00861004 0 0 0 -6.78511 -2.57762 -13.7261 0.01 
136 1 14 -0.0370323 0.136476 0.0516994 0.0561871 0.230653 -0.0215932 0 0 0 -6.78511 -2.57762 -13.7261 0.01 
137 1 14 -0.0351231 0.139115 0.0600894 0.0707809 0.261374 -0.0345763 0 0 0 -6.78511 -2.57762 -13.7261 0.01 
138 1 14 -0.0332139 0.141753 0.0684794 0.0853747 0.292095 -0.0475595 0 0 0 -6.78511 -2.57762 -13.7261 0.01 
139 1 14 -0.0313047 0.144392 0.0768694 0.0999685 0.322816 -0.0605426 0 0 0 -6.78511 -2.57762 -13.7261 0.01 
140 1 14 -0.0293955 0.147031 0.0852594 0.114562 0.353537 -0.0735257 -0.501323 -0.67998 -1.75762 -6.78511 -2.57762 -13.7261 0.01 
141 1 15 -0.00575838 -0.0644589 0.00995393 0.0356797 0.0772724 -0.0327759 -0.242309 -0.307182 0.782494 0.607034 -3.62494 7.49971 0.01 
142 1 15 -0.0083806 -0.0652413 0.0185278 0.0104682 0.0524019 -0.0427562 0 0 0 0.607034 -3.62494 7.49971 0.01 
143 1 15 -0.0110028 -0.0660238 0.0271017 -0.0147434 0.0275314 -0.0527366 0 0 0 0.607034 -3.62494 7.49971 0.01 
144 1 15 -0.013625 -0.0668063 0.0356756 -0.0399549 0.00266087 -0.0627169 0 0 0 0.607034 -3.62494 7.49971 0.01 
145 1 15 -0.0162472 -0.0675887 0.0442495 -0.0651664 -0.0222096 -0.0726973 0.00871964 0.0119854 0.00901245 0.607034 -3.62494 7.49971 0.01 
146 1 15 -0.0188695 -0.0683712 0.0528234 -0.090378 -0.0470802 -0.0826777 0 0 0 0.607034 -3.62494 7.49971 0.01 
147 1 15 -0.0214917 -0.0691537 0.0613973 -0.115589 -0.0719507 -0.092658 0 0 0 0.607034 -3.62494 7.49971 0.01 
148 1 15 -0.0241139 -0.0699362 0.0699712 -0.140801 -0.0968212 -0.102638 0 0 0 0.607034 -3.62494 7.49971 0.01 
149 1 15 -0.0267361 -0.0707186 0.0785451 -0.166013 -0.121692 -0.112619 0 0 0 0.607034 -3.62494 7.49971 0.01 
150 1 15 -0.0293583 -0.0715011 0.087119 -0.191224 -0.146562 -0.122599 -0.144221 -0.614939 -1.11543 0.607034 -3.62494 7.49971 0.01 
151 1 16 -0.0381319 0.177414 0.00994997 0.0134058 0.0419138 -0.0466092 -0.179704 0.0219253 1.05429 -4.46501 0.673082 -2.51742 0.01 
152 1 16 -0.0370424 0.180193 0.0184406 0.0261162 0.0770818 -0.05975 0 0 0 -4.46501 0.673082 -2.51742 0.01 
153 1 16 -0.0359529 0.182972 0.0269313 0.0388266 0.11225 -0.0728908 0 0 0 -4.46501 0.673082 -2.51742 0.01 
154 1 16 -0.0348634 0.185751 0.0354219 0.0515369 0.147418 -0.0860316 -0.00342912 0.00938299 0.00149169 -4.46501 0.673082 -2.51742 0.01 
155 1 16 -0.0337738 0.188529 0.0439126 0.0642473 0.182586 -0.0991725 -0.00542262 0.0131503 0.003424 -4.46501 0.673082 -2.51742 0.01 
156 1 16 -0.0326843 0.191308 0.0524032 0.0769576 0.217754 -0.112313 -0.00744162 0.0154507 0.0056014 -4.46501 0.673082 -2.51742 0.01 
157 1 16 -0.0315948 0.194087 0.0608938 0.089668 0.252922 -0.125454 -0.0113843 0.0131713 0.00883371 -4.46501 0.673082 -2.51742 0.01 
158 1 16 -0.0305052 0.196866 0.0693845 0.102378 0.28809 -0.138595 -0.0148168 0.00817375 0.00746655 -4.46501 0.673082 -2.51742 0.01 
159 1 16 -0.0294157 0.199645 0.0778751 0.115089 0.323258 -0.151736 -0.012174 0.00599358 0.00558832 -4.46501 0.673082 -2.51742 0.01 
160 1 16 -0.0283262 0.202424 0.0863658 0.127799 0.358426 -0.164877 -0.00702694 0.00289557 0.00266912 -4.46501 0.673082 -2.51742 0.01 
161 1 17 0.0738531 0.0917314 0.0099273 0.0177221 -0.0240658 -0.00278994 0.046903 -0.0752181 0.56778 2.5781 1.79687 3.32915 0.01 
162 1 17 0.0755362 0.0901292 0.0186221 0.0386797 -0.0408786 -0.00994503 0 0 0 2.5781 1.79687 3.32915 0.01 
163 1 17 0.0772193 0.0885269 0.0273169 0.0596373 -0.0576914 -0.0171001 0 0 0 2.5781 1.79687 3.32915 0.01 
164 1 17 0.0789024 0.0869247 0.0360118 0.0805949 -0.0745041 -0.0242552 0 0 0 2.5781 1.79687 3.32915 0.01 
165 1 17 0.0805855 0.0853225 0.0447066 0.101552 -0.0913169 -0.0314103 0 0 0 2.5781 1.79687 3.32915 0.01 
166 1 17 0.0822687 0.0837202 0.0534014 0.12251 -0.10813 -0.0385654 0 0 0 2.5781 1.79687 3.32915 0.01 
167 1 17 0.0839518 0.082118 0.0620962 0.143468 -0.124942 -0.0457205 0 0 0 2.5781 1.79687 3.32915 0.01 
168 1 17 0.0856349 0.0805157 0.0707911 0.164425 -0.141755 -0.0528756 0 0 0 2.5781 1.79687 3.32915 0.01 
169 1 17 0.087318 0.0789135 0.0794859 0.185383 -0.158568 -0.0600307 0.0579604 -0.103705 -0.120272 2.5781 1.79687 3.32915 0.01 
170 1 17 0.0890011 0.0773113 0.0881807 0.20634 -0.175381 -0.0671857 0 0 0 2.5781 1.79687 3.32915 0.01 
171 1 18 -0.282964 -0.0446724 0.0651408 -0.487486 0.00717992 -0.399422 0 0 0 1.85025 2.47304 3.4941 0.01 
172 1 18 -0.278555 -0.0429024 0.0727844 -0.474768 0.00844461 -0.407052 0 0 0 1.85025 2.47304 3.4941 0.01 
173 1 18 -0.274145 -0.0411324 0.0804279 -0.462049 0.0097093 -0.414681 0 0 0 1.85025 2.47304 3.4941 0.01 
174 1 18 -0.269736 -0.0393624 0.0880714 -0.449331 0.010974 -0.422311 0 0 0 1.85025 2.47304 3.4941 0.01 
175 1 18 -0.265326 -0.0375924 0.095715 -0.436613 0.0122387 -0.429941 0 0 0 1.85025 2.47304 3.4941 0.01 
176 1 18 -0.260917 -0.0358224 0.103359 -0.423895 0.0135034 -0.437571 0 0 0 1.85025 2.47304 3.4941 0.01 
177 1 18 -0.256507 -0.0340525 0.111002 -0.411176 0.0147681 -0.445201 0 0 0 1.85025 2.47304 3.4941 0.01 
178 1 18 -0.252098 -0.0322825 0.118646 -0.398458 0.0160328 -0.452831 0 0 0 1.85025 2.47304 3.4941 0.01 
179 1 18 -0.247688 -0.0305125 0.126289 -0.38574 0.0172974 -0.460461 0 0 0 1.85025 2.47304 3.4941 0.01 
180 1 18 -0.243279 -0.0287425 0.133933 -0.373022 0.0185621 -0.468091 0 0 0 1.85025 2.47304 3.4941 0.01 
181 1 19 0.0165771 0.183024 0.104209 0.180139 0.288378 -0.0438075 0.00598867 0.0237227 -0.0164339 8.96439 -0.0125518 -7.06527 0.01 
182 1 19 0.0151975 0.17942 0.11234 0.154579 0.225235 -0.0761259 0 0 0 8.96439 -0.0125518 -7.06527 0.01 
183 1 19 0.013818 0.175817 0.120471 0.129019 0.162092 -0.108444 0 0 0 8.96439 -0.0125518 -7.06527 0.01 
184 1 19 0.0124384 0.172214 0.128602 0.103459 0.0989497 -0.140763 0 0 0 8.96439 -0.0125518 -7.06527 0.01 
185 1 19 0.0110589 0.168611 0.136733 0.0778988 0.035807 -0.173081 0 0 0 8.96439 -0.0125518 -7.06527 0.01 
186 1 19 0.00967936 0.165007 0.144864 0.0523387 -0.0273356 -0.205399 0.756145 -0.200637 -0.319209 8.96439 -0.0125518 -7.06527 0.01 
187 1 19 0.00829982 0.161404 0.152995 0.0267785 -0.0904783 -0.237718 1.40042 -0.253658 -0.471639 8.96439 -0.0125518 -7.06527 0.01 
188 1 19 0.00692028 0.157801 0.161126 0.00121843 -0.153621 -0.270036 0 0 0 8.96439 -0.0125518 -7.06527 0.01 
189 1 19 0.00554074 0.154198 0.169257 -0.0243417 -0.216764 -0.302355 0 0 0 8.96439 -0.0125518 -7.06527 0.01 
190 1 19 0.0041612 0.150594 0.177388 -0.0499018 -0.279906 -0.334673 0 0 0 8.96439 -0.0125518 -7.06527 0.01 
191 1 20 -0.00602539 0.190312 0.00992419 -0.0646727 0.00356362 0.0120066 0.153372 0.0666622 0.334465 -4.7393 3.84285 1.58892 0.01 
192 1 20 -0.00472855 0.193754 0.0181385 -0.0385744 0.0445544 -0.00928668 -0.190497 0.0426754 0.162952 -4.7393 3.84285 1.58892 0.01 
193 1 20 -0.0034317 0.197195 0.0263528 -0.0124761 0.0855451 -0.0305799 0 0 0 -4.7393 3.84285 1.58892 0.01 
194 1 20 -0.00213485 0.200636 0.0345672 0.0136222 0.126536 -0.0518732 0 0 0 -4.7393 3.84285 1.58892 0.01 
195 1 20 -0.000838006 0.204078 0.0427815 0.0397206 0.167527 -0.0731665 0 0 0 -4.7393 3.84285 1.58892 0.01 
196 1 20 0.00045884 0.207519 0.0509958 0.0658189 0.208517 -0.0944597 0 0 0 -4.7393 3.84285 1.58892 0.01 
197 1 20 0.00175569 0.210961 0.0592102 0.0919172 0.249508 -0.115753 0 0 0 -4.7393 3.84285 1.58892 0.01 
198 1 20 0.00305253 0.214402 0.0674245 0.118016 0.290499 -0.137046 0 0 0 -4.7393 3.84285 1.58892 0.01 
199 1 20 0.00434938 0.217843 0.0756388 0.144114 0.33149 -0.15834 0.0385425 0.0252177 -0.0130088 -4.7393 3.84285 1.58892 0.01 
200 1 20 0.00564623 0.221285 0.0838531 0.170212 0.37248 -0.179633 -0.031043 -0.3858 -0.2164 -4.7393 3.84285 1.58892 0.01 
201 1 21 0.0180502 0.00643231 0.0102387 0.0404647 0.0477619 -0.0382513 0 0 0 -1.68472 -0.535138 2.59477 0.01 
202 1 21 0.017117 0.0101727 0.0183713 0.0264072 0.0590413 -0.0450523 -0.0653003 -0.249634 0.126867 -1.68472 -0.535138 2.59477 0.01 
203 1 21 0.0161837 0.0139131 0.0265039 0.0123496 0.0703208 -0.0518532 -0.125342 -0.494589 0.601185 -1.68472 -0.535138 2.59477 0.01 
204 1 21 0.0152504 0.0176535 0.0346364 -0.00170791 0.0816002 -0.0586542 -0.0489863 -0.319039 0.403435 -1.68472 -0.535138 2.59477 0.01 
205 1 21 0.0143172 0.0213939 0.042769 -0.0157654 0.0928797 -0.0654551 -0.00324717 -0.137288 0.175106 -1.68472 -0.535138 2.59477 0.01 
206 1 21 0.0133839 0.0251343 0.0509015 -0.029823 0.104159 -0.0722561 0.00789112 0.0482858 0.000565957 -1.68472 -0.535138 2.59477 0.01 
207 1 21 0.0124506 0.0288747 0.0590341 -0.0438805 0.115439 -0.0790571 0 0 0 -1.68472 -0.535138 2.59477 0.01 
208 1 21 0.0115174 0.0326151 0.0671666 -0.0579381 0.126718 -0.085858 0 0 0 -1.68472 -0.535138 2.59477 0.01 
209 1 21 0.0105841 0.0363555 0.0752992 -0.0719956 0.137998 -0.092659 0 0 0 -1.68472 -0.535138 2.59477 0.01 
210 1 21 0.00965084 0.0400959 0.0834317 -0.0860531 0.149277 -0.0994599 0 0 0 -1.68472 -0.535138 2.59477 0.01 
211 1 22 0.0111536 0.232843 0.0991386 0.136614 0.371146 -0.182002 0.031043 0.3858 0.2164 4.25418 -4.6832 3.06901 0.01 
212 1 22 0.00885277 0.227041 0.105623 0.124055 0.3365 -0.21746 0 0 0 4.25418 -4.6832 3.06901 0.01 
213 1 22 0.00655194 0.221239 0.112107 0.111496 0.301855 -0.252918 0 0 0 4.25418 -4.6832 3.06901 0.01 
214 1 22 0.00425111 0.215437 0.118591 0.0989369 0.26721 -0.288377 0 0 0 4.25418 -4.6832 3.06901 0.01 
215 1 22 0.00195028 0.209635 0.125074 0.0863778 0.232564 -0.323835 0 0 0 4.25418 -4.6832 3.06901 0.01 
216 1 22 -0.000350548 0.203833 0.131558 0.0738186 0.197919 -0.359293 -0.192281 -0.650174 -0.648084 4.25418 -4.6832 3.06901 0.01 
217 1 22 -0.00265138 0.198031 0.138042 0.0612594 0.163274 -0.394752 0 0 0 4.25418 -4.6832 3.06901 0.01 
218 1 22 -0.00495221 0.192229 0.144526 0.0487003 0.128628 -0.43021 0 0 0 4.25418 -4.6832 3.06901 0.01 
219 1 22 -0.00725304 0.186427 0.15101 0.0361411 0.0939831 -0.465668 0 0 0 4.25418 -4.6832 3.06901 0.01 
220 1 22 -0.00955387 0.180625 0.157494 0.0235819 0.0593378 -0.501127 0.459705 0.691991 1.39949 4.25418 -4.6832 3.06901 0.01 
221 1 23 0.219417 0.0512774 0.108905 0.282551 0.0217139 -0.127076 0 0 0 -2.9849 -5.88817 -2.13534 0.01 
222 1 23 0.217712 0.05466 0.11707 0.241703 0.0497227 -0.14721 0 0 0 -2.9849 -5.88817 -2.13534 0.01 
223 1 23 0.216008 0.0580427 0.125234 0.200854 0.0777315 -0.167344 0 0 0 -2.9849 -5.88817 -2.13534 0.01 
224 1 23 0.214303 0.0614254 0.133398 0.160006 0.10574 -0.187478 0 0 0 -2.9849 -5.88817 -2.13534 0.01 
225 1 23 0.212599 0.0648081 0.141562 0.119158 0.133749 -0.207612 0 0 0 -2.9849 -5.88817 -2.13534 0.01 
226 1 23 0.210894 0.0681907 0.149726 0.0783095 0.161758 -0.227746 0 0 0 -2.9849 -5.88817 -2.13534 0.01 
227 1 23 0.209189 0.0715734 0.15789 0.0374613 0.189767 -0.24788 0 0 0 -2.9849 -5.88817 -2.13534 0.01 
228 1 23 0.207485 0.0749561 0.166054 -0.00338697 0.217775 -0.268014 0 0 0 -2.9849 -5.88817 -2.13534 0.01 
229 1 23 0.20578 0.0783388 0.174218 -0.0442352 0.245784 -0.288148 0 0 0 -2.9849 -5.88817 -2.13534 0.01 
230 1 23 0.204076 0.0817214 0.182382 -0.0850835 0.273793 -0.308282 0 0 0 -2.9849 -5.88817 -2.13534 0.01 
231 1 24 0.159431 0.0212987 0.00992369 0.0410494 -0.0144594 -0.00683318 0.150902 -0.157308 0.68095 0.477006 4.67648 1.46514 0.01 
232 1 24 0.163626 0.0200085 0.0177812 0.0796853 -0.0120618 -0.0270645 0 0 0 0.477006 4.67648 1.46514 0.01 
233 1 24 0.16782 0.0187182 0.0256387 0.118321 -0.00966425 -0.0472959 0 0 0 0.477006 4.67648 1.46514 0.01 
234 1 24 0.172015 0.017428 0.0334963 0.156957 -0.00726668 -0.0675272 0 0 0 0.477006 4.67648 1.46514 0.01 
235 1 24 0.176209 0.0161378 0.0413538 0.195593 -0.00486911 -0.0877585 0 0 0 0.477006 4.67648 1.46514 0.01 
236 1 24 0.180404 0.0148475 0.0492113 0.234229 -0.00247155 -0.10799 0 0 0 0.477006 4.67648 1.46514 0.01 
237 1 24 0.184598 0.0135573 0.0570688 0.272865 -7.39794e-05 -0.128221 0 0 0 0.477006 4.67648 1.46514 0.01 
238 1 24 0.188793 0.0122671 0.0649264 0.311501 0.00232359 -0.148453 0 0 0 0.477006 4.67648 1.46514 0.01 
239 1 24 0.192988 0.0109768 0.0727839 0.350137 0.00472115 -0.168684 0 0 0 0.477006 4.67648 1.46514 0.01 
240 1 24 0.197182 0.00968658 0.0806414 0.388773 0.00711872 -0.188915 -0.175753 -0.065926 0.238132 0.477006 4.67648 1.46514 0.01 
241 1 25 0.136609 -0.185449 0.109056 0.0926788 -0.251039 -0.0525604 -0.0457758 -0.00226015 0.335521 -7.26487 -0.130383 2.52443 0.01 
242 1 25 0.137065 -0.182351 0.117493 0.0837597 -0.188588 -0.0750026 0 0 0 -7.26487 -0.130383 2.52443 0.01 
243 1 25 0.13752 -0.179254 0.125931 0.0748406 -0.126138 -0.0974447 0 0 0 -7.26487 -0.130383 2.52443 0.01 
244 1 25 0.137976 -0.176157 0.134369 0.0659214 -0.0636867 -0.119887 0 0 0 -7.26487 -0.130383 2.52443 0.01 
245 1 25 0.138432 -0.17306 0.142807 0.0570023 -0.00123574 -0.142329 0 0 0 -7.26487 -0.130383 2.52443 0.01 
246 1 25 0.138887 -0.169962 0.151245 0.0480832 0.0612152 -0.164771 0 0 0 -7.26487 -0.130383 2.52443 0.01 
247 1 25 0.139343 -0.166865 0.159683 0.039164 0.123666 -0.187213 0 0 0 -7.26487 -0.130383 2.52443 0.01 
248 1 25 0.139799 -0.163768 0.168121 0.0302449 0.186117 -0.209656 0 0 0 -7.26487 -0.130383 2.52443 0.01 
249 1 25 0.140254 -0.16067 0.176559 0.0213258 0.248568 -0.232098 0 0 0 -7.26487 -0.130383 2.52443 0.01 
250 1 25 0.14071 -0.157573 0.184997 0.0124066 0.311019 -0.25454 0 0 0 -7.26487 -0.130383 2.52443 0.01 
251 1 26 -0.00651173 -0.172977 0.00982308 0.0186618 -0.0490023 0.0278708 -0.731578 0.365476 1.34681 5.24312 0.0525539 2.02251 0.01 
252 1 26 -0.00514549 -0.175914 0.0182199 0.0250434 -0.0902648 0.0123994 0 0 0 5.24312 0.0525539 2.02251 0.01 
253 1 26 -0.00377926 -0.178851 0.0266167 0.031425 -0.131527 -0.00307199 0 0 0 5.24312 0.0525539 2.02251 0.01 
254 1 26 -0.00241302 -0.181788 0.0350136 0.0378066 -0.17279 -0.0185434 0.125579 -0.0704586 -0.129113 5.24312 0.0525539 2.02251 0.01 
255 1 26 -0.00104679 -0.184725 0.0434104 0.0441882 -0.214052 -0.0340148 0.525134 -0.499023 -0.789948 5.24312 0.0525539 2.02251 0.01 
256 1 26 0.000319445 -0.187662 0.0518073 0.0505698 -0.255314 -0.0494862 0.0946338 -0.0930728 -0.12818 5.24312 0.0525539 2.02251 0.01 
257 1 26 0.00168568 -0.190599 0.0602041 0.0569514 -0.296577 -0.0649576 0 0 0 5.24312 0.0525539 2.02251 0.01 
258 1 26 0.00305191 -0.193536 0.0686009 0.063333 -0.337839 -0.080429 0 0 0 5.24312 0.0525539 2.02251 0.01 
259 1 26 0.00441815 -0.196474 0.0769978 0.0697146 -0.379102 -0.0959004 0 0 0 5.24312 0.0525539 2.02251 0.01 
260 1 26 0.00578438 -0.199411 0.0853946 0.0760962 -0.420364 -0.111372 -1.77778 0.521112 1.74522 5.24312 0.0525539 2.02251 0.01 
261 1 27 -0.123305 0.195363 0.107121 -0.201691 0.277607 -0.323582 0 0 0 0.590915 -15.7411 14.614 0.01 
262 1 27 -0.125841 0.188425 0.112263 -0.181239 0.237511 -0.367597 0 0 0 0.590915 -15.7411 14.614 0.01 
263 1 27 -0.128377 0.181487 0.117405 -0.160787 0.197414 -0.411613 0.626581 -0.271954 -0.146214 0.590915 -15.7411 14.614 0.01 