ITEM: TIMESTEP
17000
ITEM: NUMBER OF ATOMS
6300
ITEM: BOX BOUNDS mm mm mm
-0.3 0.317246
-0.3 0.3
0 0.5
ITEM: ATOMS id type mol x y z vx vy vz fx fy fz omegax omegay omegaz radius 
1 1 1 -0.116022 -0.120067 0.100968 0.0150405 0.134077 -0.0291021 -0.0322695 -0.0518808 0.595393 2.71905 0.556726 -0.831829 0.01 
2 1 1 -0.116402 -0.120394 0.109954 0.0197717 0.10996 -0.0297782 0 0 0 2.71905 0.556726 -0.831829 0.01 
3 1 1 -0.116783 -0.120721 0.11894 0.0245028 0.0858428 -0.0304544 0 0 0 2.71905 0.556726 -0.831829 0.01 
4 1 1 -0.117163 -0.121047 0.127927 0.0292339 0.0617256 -0.0311306 0 0 0 2.71905 0.556726 -0.831829 0.01 
5 1 1 -0.117543 -0.121374 0.136913 0.0339651 0.0376085 -0.0318067 0 0 0 2.71905 0.556726 -0.831829 0.01 
6 1 1 -0.117923 -0.1217 0.145899 0.0386962 0.0134914 -0.0324829 0 0 0 2.71905 0.556726 -0.831829 0.01 
7 1 1 -0.118304 -0.122027 0.154885 0.0434273 -0.0106257 -0.0331591 0 0 0 2.71905 0.556726 -0.831829 0.01 
8 1 1 -0.118684 -0.122353 0.163871 0.0481585 -0.0347429 -0.0338352 0 0 0 2.71905 0.556726 -0.831829 0.01 
9 1 1 -0.119064 -0.12268 0.172857 0.0528896 -0.05886 -0.0345114 0 0 0 2.71905 0.556726 -0.831829 0.01 
10 1 1 -0.119445 -0.123006 0.181843 0.0576207 -0.0829771 -0.0351876 0.0418075 -0.0129751 -0.0245976 2.71905 0.556726 -0.831829 0.01 
11 1 2 -0.0297538 -0.108182 0.0475417 0.153324 -0.0102106 -0.107421 -0.669636 0.525706 1.14671 -0.59161 -1.1295 10.0208 0.01 
12 1 2 -0.0307201 -0.108224 0.0564895 0.143636 -0.0145999 -0.108488 0 0 0 -0.59161 -1.1295 10.0208 0.01 
13 1 2 -0.0316864 -0.108266 0.0654374 0.133948 -0.0189893 -0.109554 0 0 0 -0.59161 -1.1295 10.0208 0.01 
14 1 2 -0.0326526 -0.108308 0.0743853 0.12426 -0.0233786 -0.110621 0 0 0 -0.59161 -1.1295 10.0208 0.01 
15 1 2 -0.0336189 -0.108349 0.0833332 0.114572 -0.0277679 -0.111688 0 0 0 -0.59161 -1.1295 10.0208 0.01 
16 1 2 -0.0345852 -0.108391 0.0922811 0.104884 -0.0321573 -0.112754 2.05938 -2.25147 0.653796 -0.59161 -1.1295 10.0208 0.01 
17 1 2 -0.0355515 -0.108433 0.101229 0.0951964 -0.0365466 -0.113821 0 0 0 -0.59161 -1.1295 10.0208 0.01 
18 1 2 -0.0365178 -0.108475 0.110177 0.0855085 -0.040936 -0.114888 0 0 0 -0.59161 -1.1295 10.0208 0.01 
19 1 2 -0.0374841 -0.108517 0.119125 0.0758207 -0.0453253 -0.115954 0 0 0 -0.59161 -1.1295 10.0208 0.01 
20 1 2 -0.0384504 -0.108558 0.128073 0.0661328 -0.0497146 -0.117021 -1.11201 1.66251 -1.89944 -0.59161 -1.1295 10.0208 0.01 
21 1 3 -0.0268738 -0.0312681 0.00991319 -0.123079 -0.151366 0.0158473 0.175805 0.0719531 0.379919 6.19727 9.62098 -12.9019 0.01 
22 1 3 -0.0293654 -0.0345231 0.0179255 -0.0879888 -0.168873 0.0196475 0 0 0 6.19727 9.62098 -12.9019 0.01 
23 1 3 -0.0318571 -0.0377781 0.0259378 -0.0528983 -0.18638 0.0234476 0 0 0 6.19727 9.62098 -12.9019 0.01 
24 1 3 -0.0343488 -0.041033 0.03395 -0.0178077 -0.203887 0.0272478 0 0 0 6.19727 9.62098 -12.9019 0.01 
25 1 3 -0.0368404 -0.044288 0.0419623 0.0172828 -0.221395 0.031048 0 0 0 6.19727 9.62098 -12.9019 0.01 
26 1 3 -0.0393321 -0.047543 0.0499746 0.0523733 -0.238902 0.0348482 0 0 0 6.19727 9.62098 -12.9019 0.01 
27 1 3 -0.0418238 -0.050798 0.0579869 0.0874639 -0.256409 0.0386483 0 0 0 6.19727 9.62098 -12.9019 0.01 
28 1 3 -0.0443154 -0.054053 0.0659992 0.122554 -0.273916 0.0424485 0 0 0 6.19727 9.62098 -12.9019 0.01 
29 1 3 -0.0468071 -0.057308 0.0740114 0.157645 -0.291423 0.0462487 -0.729259 1.15949 0.316126 6.19727 9.62098 -12.9019 0.01 
30 1 3 -0.0492987 -0.060563 0.0820237 0.192735 -0.308931 0.0500488 0.169722 -0.124849 -0.453684 6.19727 9.62098 -12.9019 0.01 
31 1 4 -0.0874639 0.110698 0.00970655 -0.0776203 -0.0103374 -0.0386861 -0.209377 0.610859 5.18778 -3.99523 -0.658764 3.41021 0.01 
32 1 4 -0.0873939 0.112032 0.018607 -0.0880306 0.0254604 -0.0439671 0 0 0 -3.99523 -0.658764 3.41021 0.01 
33 1 4 -0.087324 0.113365 0.0275074 -0.0984409 0.0612582 -0.0492481 0 0 0 -3.99523 -0.658764 3.41021 0.01 
34 1 4 -0.087254 0.114698 0.0364078 -0.108851 0.097056 -0.0545291 0 0 0 -3.99523 -0.658764 3.41021 0.01 
35 1 4 -0.0871841 0.116032 0.0453082 -0.119261 0.132854 -0.05981 0 0 0 -3.99523 -0.658764 3.41021 0.01 
36 1 4 -0.0871141 0.117365 0.0542086 -0.129672 0.168652 -0.065091 0 0 0 -3.99523 -0.658764 3.41021 0.01 
37 1 4 -0.0870441 0.118698 0.063109 -0.140082 0.204449 -0.070372 0 0 0 -3.99523 -0.658764 3.41021 0.01 
38 1 4 -0.0869742 0.120032 0.0720094 -0.150492 0.240247 -0.075653 0 0 0 -3.99523 -0.658764 3.41021 0.01 
39 1 4 -0.0869042 0.121365 0.0809098 -0.160903 0.276045 -0.0809339 0 0 0 -3.99523 -0.658764 3.41021 0.01 
40 1 4 -0.0868343 0.122698 0.0898102 -0.171313 0.311843 -0.0862149 -0.620107 -0.0510367 -0.761425 -3.99523 -0.658764 3.41021 0.01 
41 1 5 0.0774666 -0.135276 0.0119971 0.0764311 0.269181 -0.750509 -1.03876 -2.34475 0.0299635 3.22929 -1.57596 -0.104197 0.01 
42 1 5 0.0779208 -0.134094 0.0209077 0.0625114 0.240359 -0.745979 0 0 0 3.22929 -1.57596 -0.104197 0.01 
43 1 5 0.078375 -0.132913 0.0298183 0.0485917 0.211537 -0.741449 0 0 0 3.22929 -1.57596 -0.104197 0.01 
44 1 5 0.0788293 -0.131732 0.0387289 0.034672 0.182715 -0.736919 1.01062 -0.687521 0.671956 3.22929 -1.57596 -0.104197 0.01 
45 1 5 0.0792835 -0.130551 0.0476394 0.0207523 0.153893 -0.732389 0.999982 -0.47638 0.619121 3.22929 -1.57596 -0.104197 0.01 
46 1 5 0.0797377 -0.12937 0.05655 0.00683263 0.12507 -0.727859 0 0 0 3.22929 -1.57596 -0.104197 0.01 
47 1 5 0.0801919 -0.128189 0.0654606 -0.00708707 0.0962481 -0.723329 0 0 0 3.22929 -1.57596 -0.104197 0.01 
48 1 5 0.0806461 -0.127008 0.0743712 -0.0210068 0.0674259 -0.718799 0 0 0 3.22929 -1.57596 -0.104197 0.01 
49 1 5 0.0811004 -0.125826 0.0832818 -0.0349265 0.0386037 -0.714269 0 0 0 3.22929 -1.57596 -0.104197 0.01 
50 1 5 0.0815546 -0.124645 0.0921924 -0.0488462 0.00978151 -0.709739 0 0 0 3.22929 -1.57596 -0.104197 0.01 
51 1 6 0.174479 -0.0359539 0.00978317 0.0572605 -0.10618 -0.0760793 -0.0926062 -0.90987 4.46061 10.9468 2.19409 -32.5994 0.01 
52 1 6 0.172137 -0.0374339 0.0183463 0.0278017 -0.123583 -0.0871429 0 0 0 10.9468 2.19409 -32.5994 0.01 
53 1 6 0.169796 -0.0389139 0.0269093 -0.00165718 -0.140987 -0.0982065 0 0 0 10.9468 2.19409 -32.5994 0.01 
54 1 6 0.167454 -0.0403939 0.0354724 -0.031116 -0.15839 -0.10927 0 0 0 10.9468 2.19409 -32.5994 0.01 
55 1 6 0.165113 -0.0418739 0.0440355 -0.0605749 -0.175794 -0.120334 0 0 0 10.9468 2.19409 -32.5994 0.01 
56 1 6 0.162771 -0.0433539 0.0525986 -0.0900337 -0.193197 -0.131397 0 0 0 10.9468 2.19409 -32.5994 0.01 
57 1 6 0.160429 -0.0448338 0.0611617 -0.119493 -0.210601 -0.142461 0 0 0 10.9468 2.19409 -32.5994 0.01 
58 1 6 0.158088 -0.0463138 0.0697248 -0.148951 -0.228005 -0.153524 0 0 0 10.9468 2.19409 -32.5994 0.01 
59 1 6 0.155746 -0.0477938 0.0782879 -0.17841 -0.245408 -0.164588 0 0 0 10.9468 2.19409 -32.5994 0.01 
60 1 6 0.153405 -0.0492738 0.0868509 -0.207869 -0.262812 -0.175652 0.0191583 0.00191007 0.0158476 10.9468 2.19409 -32.5994 0.01 
61 1 7 -0.0384897 0.217395 0.0108833 -0.190384 -0.128164 -0.106124 0 0 0 -5.12404 0.848414 19.6351 0.01 
62 1 7 -0.0390312 0.216193 0.0197862 -0.159224 -0.0931784 -0.0995045 0 0 0 -5.12404 0.848414 19.6351 0.01 
63 1 7 -0.0395727 0.214991 0.0286891 -0.128064 -0.0581926 -0.0928847 0 0 0 -5.12404 0.848414 19.6351 0.01 
64 1 7 -0.0401143 0.213789 0.037592 -0.0969048 -0.0232069 -0.0862648 0 0 0 -5.12404 0.848414 19.6351 0.01 
65 1 7 -0.0406558 0.212586 0.0464948 -0.0657452 0.0117788 -0.079645 0 0 0 -5.12404 0.848414 19.6351 0.01 
66 1 7 -0.0411973 0.211384 0.0553977 -0.0345856 0.0467646 -0.0730252 0.011771 -0.0227076 0.00420232 -5.12404 0.848414 19.6351 0.01 
67 1 7 -0.0417389 0.210182 0.0643006 -0.00342594 0.0817503 -0.0664053 0 0 0 -5.12404 0.848414 19.6351 0.01 
68 1 7 -0.0422804 0.20898 0.0732035 0.0277337 0.116736 -0.0597855 0 0 0 -5.12404 0.848414 19.6351 0.01 
69 1 7 -0.0428219 0.207777 0.0821064 0.0588933 0.151722 -0.0531657 0 0 0 -5.12404 0.848414 19.6351 0.01 
70 1 7 -0.0433635 0.206575 0.0910093 0.0900529 0.186707 -0.0465458 0.675616 0.921394 -0.159222 -5.12404 0.848414 19.6351 0.01 
71 1 8 0.129095 -0.133539 0.108564 -0.0274072 -0.0970585 -0.040406 0.37185 -0.140307 0.270215 0.0516006 3.24776 0.931184 0.01 
72 1 8 0.130122 -0.133398 0.117504 0.00149651 -0.0965634 -0.0437343 -2.27367 0.739974 0.374054 0.0516006 3.24776 0.931184 0.01 
73 1 8 0.131149 -0.133257 0.126444 0.0304002 -0.0960684 -0.0470625 0 0 0 0.0516006 3.24776 0.931184 0.01 
74 1 8 0.132176 -0.133115 0.135384 0.0593038 -0.0955733 -0.0503908 0 0 0 0.0516006 3.24776 0.931184 0.01 
75 1 8 0.133203 -0.132974 0.144324 0.0882075 -0.0950783 -0.053719 0 0 0 0.0516006 3.24776 0.931184 0.01 
76 1 8 0.134231 -0.132833 0.153264 0.117111 -0.0945833 -0.0570473 0 0 0 0.0516006 3.24776 0.931184 0.01 
77 1 8 0.135258 -0.132692 0.162204 0.146015 -0.0940882 -0.0603755 0 0 0 0.0516006 3.24776 0.931184 0.01 
78 1 8 0.136285 -0.13255 0.171144 0.174918 -0.0935932 -0.0637038 0.0321216 -0.0273132 -0.0185576 0.0516006 3.24776 0.931184 0.01 
79 1 8 0.137312 -0.132409 0.180084 0.203822 -0.0930981 -0.0670321 0.0797442 -0.0755124 -0.0477868 0.0516006 3.24776 0.931184 0.01 
80 1 8 0.138339 -0.132268 0.189024 0.232726 -0.0926031 -0.0703603 0.00817872 -0.00869469 -0.00513573 0.0516006 3.24776 0.931184 0.01 
81 1 9 -0.115314 0.0302139 0.105726 -0.314747 0.106575 0.132926 0 0 0 1.28766 7.62537 -1.74228 0.01 
82 1 9 -0.113409 0.0290786 0.114449 -0.250212 0.0920249 0.116939 0 0 0 1.28766 7.62537 -1.74228 0.01 
83 1 9 -0.111505 0.0279432 0.123171 -0.185677 0.0774746 0.100953 0 0 0 1.28766 7.62537 -1.74228 0.01 
84 1 9 -0.1096 0.0268079 0.131894 -0.121142 0.0629244 0.0849671 0 0 0 1.28766 7.62537 -1.74228 0.01 
85 1 9 -0.107695 0.0256726 0.140617 -0.0566078 0.0483741 0.0689809 0 0 0 1.28766 7.62537 -1.74228 0.01 
86 1 9 -0.105791 0.0245373 0.149339 0.00792696 0.0338239 0.0529947 0 0 0 1.28766 7.62537 -1.74228 0.01 
87 1 9 -0.103886 0.0234019 0.158062 0.0724617 0.0192737 0.0370086 0 0 0 1.28766 7.62537 -1.74228 0.01 
88 1 9 -0.101981 0.0222666 0.166784 0.136996 0.00472342 0.0210224 0 0 0 1.28766 7.62537 -1.74228 0.01 
89 1 9 -0.100076 0.0211313 0.175507 0.201531 -0.00982682 0.0050362 0 0 0 1.28766 7.62537 -1.74228 0.01 
90 1 9 -0.0981716 0.0199959 0.184229 0.266066 -0.0243771 -0.01095 0 0 0 1.28766 7.62537 -1.74228 0.01 
91 1 10 0.0620444 0.198436 0.109437 0.0459899 0.0772815 -0.00890136 -0.378605 1.09238 5.48768 -0.281973 -2.22032 0.685422 0.01 
92 1 10 0.0605861 0.199393 0.118266 0.0257299 0.0787716 -0.0124091 0 0 0 -0.281973 -2.22032 0.685422 0.01 
93 1 10 0.0591278 0.20035 0.127096 0.0054698 0.0802617 -0.0159169 0 0 0 -0.281973 -2.22032 0.685422 0.01 
94 1 10 0.0576696 0.201308 0.135925 -0.0147903 0.0817518 -0.0194246 0 0 0 -0.281973 -2.22032 0.685422 0.01 
95 1 10 0.0562113 0.202265 0.144754 -0.0350503 0.0832419 -0.0229324 0 0 0 -0.281973 -2.22032 0.685422 0.01 
96 1 10 0.054753 0.203222 0.153584 -0.0553104 0.084732 -0.0264401 0 0 0 -0.281973 -2.22032 0.685422 0.01 
97 1 10 0.0532948 0.20418 0.162413 -0.0755705 0.0862221 -0.0299479 0 0 0 -0.281973 -2.22032 0.685422 0.01 
98 1 10 0.0518365 0.205137 0.171242 -0.0958305 0.0877122 -0.0334556 0 0 0 -0.281973 -2.22032 0.685422 0.01 
99 1 10 0.0503782 0.206094 0.180072 -0.116091 0.0892023 -0.0369634 0 0 0 -0.281973 -2.22032 0.685422 0.01 
100 1 10 0.04892 0.207052 0.188901 -0.136351 0.0906924 -0.0404712 0.0975972 0.0635994 -2.86196 -0.281973 -2.22032 0.685422 0.01 
101 1 11 -0.210183 -0.0955228 0.0690998 -0.343594 -0.0167283 -0.37973 2.87351 0.941949 2.33387 4.59559 2.1091 17.0314 0.01 
102 1 11 -0.208626 -0.095861 0.0779577 -0.319152 -0.0309204 -0.384568 0 0 0 4.59559 2.1091 17.0314 0.01 
103 1 11 -0.20707 -0.0961992 0.0868156 -0.29471 -0.0451125 -0.389406 -0.883171 -0.83666 0.60077 4.59559 2.1091 17.0314 0.01 
104 1 11 -0.205513 -0.0965374 0.0956734 -0.270267 -0.0593046 -0.394244 0 0 0 4.59559 2.1091 17.0314 0.01 
105 1 11 -0.203956 -0.0968756 0.104531 -0.245825 -0.0734968 -0.399081 0 0 0 4.59559 2.1091 17.0314 0.01 
106 1 11 -0.202399 -0.0972138 0.113389 -0.221383 -0.0876889 -0.403919 0 0 0 4.59559 2.1091 17.0314 0.01 
107 1 11 -0.200842 -0.097552 0.122247 -0.19694 -0.101881 -0.408757 0 0 0 4.59559 2.1091 17.0314 0.01 
108 1 11 -0.199285 -0.0978902 0.131105 -0.172498 -0.116073 -0.413595 0 0 0 4.59559 2.1091 17.0314 0.01 
109 1 11 -0.197729 -0.0982284 0.139963 -0.148056 -0.130265 -0.418433 0 0 0 4.59559 2.1091 17.0314 0.01 
110 1 11 -0.196172 -0.0985666 0.148821 -0.123614 -0.144457 -0.42327 0 0 0 4.59559 2.1091 17.0314 0.01 
111 1 12 0.0949437 0.0513422 0.110659 -0.0340041 0.0434203 -0.27451 0 0 0 -1.00166 1.54507 -0.948891 0.01 
112 1 12 0.0972856 0.0528969 0.119209 -0.0193188 0.049762 -0.279686 0 0 0 -1.00166 1.54507 -0.948891 0.01 
113 1 12 0.0996275 0.0544517 0.127759 -0.00463355 0.0561036 -0.284862 0 0 0 -1.00166 1.54507 -0.948891 0.01 
114 1 12 0.101969 0.0560064 0.136309 0.0100517 0.0624453 -0.290038 0 0 0 -1.00166 1.54507 -0.948891 0.01 
115 1 12 0.104311 0.0575612 0.144858 0.024737 0.068787 -0.295214 0 0 0 -1.00166 1.54507 -0.948891 0.01 
116 1 12 0.106653 0.0591159 0.153408 0.0394223 0.0751287 -0.300389 0 0 0 -1.00166 1.54507 -0.948891 0.01 
117 1 12 0.108995 0.0606707 0.161958 0.0541076 0.0814704 -0.305565 0 0 0 -1.00166 1.54507 -0.948891 0.01 
118 1 12 0.111337 0.0622254 0.170508 0.0687929 0.0878121 -0.310741 0 0 0 -1.00166 1.54507 -0.948891 0.01 
119 1 12 0.113679 0.0637802 0.179057 0.0834782 0.0941537 -0.315917 0 0 0 -1.00166 1.54507 -0.948891 0.01 
120 1 12 0.116021 0.0653349 0.187607 0.0981634 0.100495 -0.321092 -0.276959 -0.0523651 0.0539827 -1.00166 1.54507 -0.948891 0.01 
121 1 13 -0.0138855 0.225835 0.106417 0.0588238 0.198473 -0.124775 0.299021 -0.20864 0.500411 2.39149 -4.30301 4.38245 0.01 
122 1 13 -0.0152082 0.223615 0.115038 0.0314521 0.172059 -0.135773 0 0 0 2.39149 -4.30301 4.38245 0.01 
123 1 13 -0.0165308 0.221396 0.123659 0.0040803 0.145645 -0.146771 0 0 0 2.39149 -4.30301 4.38245 0.01 
124 1 13 -0.0178534 0.219177 0.13228 -0.0232914 0.119231 -0.15777 0 0 0 2.39149 -4.30301 4.38245 0.01 
125 1 13 -0.019176 0.216958 0.140902 -0.0506632 0.092817 -0.168768 0 0 0 2.39149 -4.30301 4.38245 0.01 
126 1 13 -0.0204986 0.214739 0.149523 -0.0780349 0.0664031 -0.179767 0 0 0 2.39149 -4.30301 4.38245 0.01 
127 1 13 -0.0218212 0.212519 0.158144 -0.105407 0.0399892 -0.190765 0 0 0 2.39149 -4.30301 4.38245 0.01 
128 1 13 -0.0231438 0.2103 0.166765 -0.132778 0.0135753 -0.201764 0 0 0 2.39149 -4.30301 4.38245 0.01 
129 1 13 -0.0244664 0.208081 0.175387 -0.16015 -0.0128386 -0.212762 0 0 0 2.39149 -4.30301 4.38245 0.01 
130 1 13 -0.0257891 0.205862 0.184008 -0.187522 -0.0392525 -0.22376 0 0 0 2.39149 -4.30301 4.38245 0.01 
131 1 14 -0.0464202 0.120992 0.00991484 0.0160422 0.0255484 9.40671e-05 0.0528084 0.0566344 0.65521 -2.57464 1.61992 -3.72053 0.01 
132 1 14 -0.0452153 0.122242 0.0187457 0.0350004 0.0438016 -0.00507773 0 0 0 -2.57464 1.61992 -3.72053 0.01 
133 1 14 -0.0440103 0.123493 0.0275766 0.0539586 0.0620548 -0.0102495 0 0 0 -2.57464 1.61992 -3.72053 0.01 
134 1 14 -0.0428053 0.124744 0.0364074 0.0729168 0.080308 -0.0154213 0 0 0 -2.57464 1.61992 -3.72053 0.01 
135 1 14 -0.0416004 0.125994 0.0452383 0.091875 0.0985612 -0.0205931 0 0 0 -2.57464 1.61992 -3.72053 0.01 
136 1 14 -0.0403954 0.127245 0.0540691 0.110833 0.116814 -0.0257649 0 0 0 -2.57464 1.61992 -3.72053 0.01 
137 1 14 -0.0391905 0.128495 0.0629 0.129791 0.135068 -0.0309367 0 0 0 -2.57464 1.61992 -3.72053 0.01 
138 1 14 -0.0379855 0.129746 0.0717308 0.14875 0.153321 -0.0361085 0 0 0 -2.57464 1.61992 -3.72053 0.01 
139 1 14 -0.0367805 0.130997 0.0805617 0.167708 0.171574 -0.0412803 0 0 0 -2.57464 1.61992 -3.72053 0.01 
140 1 14 -0.0355756 0.132247 0.0893926 0.186666 0.189827 -0.0464521 0 0 0 -2.57464 1.61992 -3.72053 0.01 
141 1 15 -0.00956223 -0.068707 0.0185369 0.13166 0.0759444 0.501704 0 0 0 0.979974 -1.82414 -2.37031 0.01 
142 1 15 -0.00967475 -0.068764 0.027536 0.115109 0.0673922 0.501443 0 0 0 0.979974 -1.82414 -2.37031 0.01 
143 1 15 -0.00978726 -0.0688211 0.0365351 0.0985583 0.05884 0.501182 0 0 0 0.979974 -1.82414 -2.37031 0.01 
144 1 15 -0.00989978 -0.0688781 0.0455342 0.0820075 0.0502878 0.500921 0 0 0 0.979974 -1.82414 -2.37031 0.01 
145 1 15 -0.0100123 -0.0689351 0.0545334 0.0654566 0.0417356 0.50066 0 0 0 0.979974 -1.82414 -2.37031 0.01 
146 1 15 -0.0101248 -0.0689922 0.0635325 0.0489057 0.0331834 0.500399 0 0 0 0.979974 -1.82414 -2.37031 0.01 
147 1 15 -0.0102373 -0.0690492 0.0725316 0.0323549 0.0246312 0.500138 0 0 0 0.979974 -1.82414 -2.37031 0.01 
148 1 15 -0.0103498 -0.0691062 0.0815307 0.015804 0.016079 0.499876 0 0 0 0.979974 -1.82414 -2.37031 0.01 
149 1 15 -0.0104624 -0.0691632 0.0905298 -0.000746868 0.00752676 0.499615 0 0 0 0.979974 -1.82414 -2.37031 0.01 
150 1 15 -0.0105749 -0.0692203 0.0995289 -0.0172977 -0.00102544 0.499354 0 0 0 0.979974 -1.82414 -2.37031 0.01 
151 1 16 -0.0377961 0.176439 0.0089566 -0.0124301 0.0238517 0.0833358 0.676844 2.52396 25.3407 -1.83691 0.238481 -1.57202 0.01 
152 1 16 -0.0375801 0.177487 0.0178927 -0.0086512 0.0399271 0.0813589 0 0 0 -1.83691 0.238481 -1.57202 0.01 
153 1 16 -0.0373642 0.178535 0.0268289 -0.00487235 0.0560024 0.079382 0 0 0 -1.83691 0.238481 -1.57202 0.01 
154 1 16 -0.0371482 0.179584 0.035765 -0.00109349 0.0720777 0.0774051 0 0 0 -1.83691 0.238481 -1.57202 0.01 
155 1 16 -0.0369322 0.180632 0.0447012 0.00268536 0.088153 0.0754282 0 0 0 -1.83691 0.238481 -1.57202 0.01 
156 1 16 -0.0367162 0.18168 0.0536373 0.00646422 0.104228 0.0734513 0 0 0 -1.83691 0.238481 -1.57202 0.01 
157 1 16 -0.0365002 0.182728 0.0625735 0.0102431 0.120304 0.0714744 0 0 0 -1.83691 0.238481 -1.57202 0.01 
158 1 16 -0.0362843 0.183776 0.0715096 0.0140219 0.136379 0.0694975 0 0 0 -1.83691 0.238481 -1.57202 0.01 
159 1 16 -0.0360683 0.184824 0.0804458 0.0178008 0.152454 0.0675206 0 0 0 -1.83691 0.238481 -1.57202 0.01 
160 1 16 -0.0358523 0.185873 0.0893819 0.0215796 0.16853 0.0655437 0 0 0 -1.83691 0.238481 -1.57202 0.01 
161 1 17 0.0724501 0.0927049 0.00985221 0.0131613 -0.0177843 0.00394105 0.259943 -0.315514 1.41861 2.97367 2.24526 2.30961 0.01 
162 1 17 0.0729306 0.0920027 0.0188119 0.0348997 -0.0433177 0.000774293 0 0 0 2.97367 2.24526 2.30961 0.01 
163 1 17 0.0734111 0.0913006 0.0277716 0.0566382 -0.0688511 -0.00239246 0 0 0 2.97367 2.24526 2.30961 0.01 
164 1 17 0.0738917 0.0905985 0.0367313 0.0783766 -0.0943845 -0.00555921 0 0 0 2.97367 2.24526 2.30961 0.01 
165 1 17 0.0743722 0.0898964 0.045691 0.100115 -0.119918 -0.00872597 0 0 0 2.97367 2.24526 2.30961 0.01 
166 1 17 0.0748527 0.0891943 0.0546507 0.121853 -0.145451 -0.0118927 0 0 0 2.97367 2.24526 2.30961 0.01 
167 1 17 0.0753332 0.0884922 0.0636104 0.143592 -0.170985 -0.0150595 0 0 0 2.97367 2.24526 2.30961 0.01 
168 1 17 0.0758138 0.08779 0.0725701 0.16533 -0.196518 -0.0182262 0 0 0 2.97367 2.24526 2.30961 0.01 
169 1 17 0.0762943 0.0870879 0.0815298 0.187069 -0.222051 -0.021393 0 0 0 2.97367 2.24526 2.30961 0.01 
170 1 17 0.0767748 0.0863858 0.0904895 0.208807 -0.247585 -0.0245597 0.128011 -0.161592 -0.219726 2.97367 2.24526 2.30961 0.01 
171 1 18 -0.255251 -0.0447163 0.0918792 -0.526935 -0.101288 -0.493095 0 0 0 -3.51164 9.79274 10.2594 0.01 
172 1 18 -0.253149 -0.0437251 0.100574 -0.451958 -0.0491898 -0.517161 0 0 0 -3.51164 9.79274 10.2594 0.01 
173 1 18 -0.251047 -0.0427339 0.109269 -0.376981 0.00290882 -0.541226 0 0 0 -3.51164 9.79274 10.2594 0.01 
174 1 18 -0.248945 -0.0417427 0.117963 -0.302005 0.0550075 -0.565291 0 0 0 -3.51164 9.79274 10.2594 0.01 
175 1 18 -0.246843 -0.0407516 0.126658 -0.227028 0.107106 -0.589357 0 0 0 -3.51164 9.79274 10.2594 0.01 
176 1 18 -0.244741 -0.0397604 0.135353 -0.152051 0.159205 -0.613422 0 0 0 -3.51164 9.79274 10.2594 0.01 
177 1 18 -0.242639 -0.0387692 0.144048 -0.0770745 0.211303 -0.637487 0 0 0 -3.51164 9.79274 10.2594 0.01 
178 1 18 -0.240537 -0.0377781 0.152743 -0.00209772 0.263402 -0.661553 0 0 0 -3.51164 9.79274 10.2594 0.01 
179 1 18 -0.238435 -0.0367869 0.161437 0.072879 0.315501 -0.685618 0 0 0 -3.51164 9.79274 10.2594 0.01 
180 1 18 -0.236333 -0.0357957 0.170132 0.147856 0.367599 -0.709684 0 0 0 -3.51164 9.79274 10.2594 0.01 
181 1 19 0.00405916 0.173653 0.109388 0.167204 0.129637 0.0049585 -0.0263191 0.0317616 -0.0152971 3.7529 -4.27851 6.16944 0.01 
182 1 19 0.00519648 0.171728 0.118106 0.141783 0.103936 0.00259914 0 0 0 3.7529 -4.27851 6.16944 0.01 
183 1 19 0.0063338 0.169802 0.126823 0.116361 0.0782361 0.000239777 0 0 0 3.7529 -4.27851 6.16944 0.01 
184 1 19 0.00747113 0.167877 0.135541 0.0909401 0.0525357 -0.00211959 0 0 0 3.7529 -4.27851 6.16944 0.01 
185 1 19 0.00860845 0.165952 0.144259 0.0655189 0.0268353 -0.00447895 0 0 0 3.7529 -4.27851 6.16944 0.01 
186 1 19 0.00974577 0.164027 0.152977 0.0400976 0.00113497 -0.00683831 0 0 0 3.7529 -4.27851 6.16944 0.01 
187 1 19 0.0108831 0.162101 0.161695 0.0146764 -0.0245654 -0.00919767 0.0635076 0.0217917 0.0437853 3.7529 -4.27851 6.16944 0.01 
188 1 19 0.0120204 0.160176 0.170412 -0.0107448 -0.0502658 -0.011557 0 0 0 3.7529 -4.27851 6.16944 0.01 
189 1 19 0.0131577 0.158251 0.17913 -0.0361661 -0.0759662 -0.0139164 0 0 0 3.7529 -4.27851 6.16944 0.01 
190 1 19 0.0142951 0.156325 0.187848 -0.0615873 -0.101667 -0.0162758 0 0 0 3.7529 -4.27851 6.16944 0.01 
191 1 20 -0.00635857 0.188416 0.00991988 0.0390624 0.0109759 0.00524506 -0.230758 0.100557 0.503432 -3.4058 -0.781094 0.168977 0.01 
192 1 20 -0.00579743 0.189825 0.0187913 0.031895 0.041285 0.000887009 0 0 0 -3.4058 -0.781094 0.168977 0.01 
193 1 20 -0.00523629 0.191233 0.0276627 0.0247276 0.0715941 -0.00347104 0 0 0 -3.4058 -0.781094 0.168977 0.01 
194 1 20 -0.00467515 0.192641 0.0365341 0.0175602 0.101903 -0.00782909 0 0 0 -3.4058 -0.781094 0.168977 0.01 
195 1 20 -0.004114 0.194049 0.0454055 0.0103929 0.132212 -0.0121871 0 0 0 -3.4058 -0.781094 0.168977 0.01 
196 1 20 -0.00355286 0.195458 0.0542769 0.00322549 0.162521 -0.0165452 0 0 0 -3.4058 -0.781094 0.168977 0.01 
197 1 20 -0.00299172 0.196866 0.0631483 -0.00394189 0.19283 -0.0209032 0 0 0 -3.4058 -0.781094 0.168977 0.01 
198 1 20 -0.00243058 0.198274 0.0720197 -0.0111093 0.223139 -0.0252613 0 0 0 -3.4058 -0.781094 0.168977 0.01 
199 1 20 -0.00186944 0.199683 0.0808911 -0.0182766 0.253448 -0.0296193 0 0 0 -3.4058 -0.781094 0.168977 0.01 
200 1 20 -0.00130829 0.201091 0.0897625 -0.025444 0.283758 -0.0339774 -0.187835 0.106656 0.010285 -3.4058 -0.781094 0.168977 0.01 
201 1 21 0.0182508 0.00534103 0.0098501 -0.0118709 0.0330732 -0.0204771 -0.214165 0.630184 1.97326 -3.5987 -0.492471 -6.40935 0.01 
202 1 21 0.0174889 0.00735856 0.0185879 -0.00324296 0.0694009 -0.0281128 0 0 0 -3.5987 -0.492471 -6.40935 0.01 
203 1 21 0.0167271 0.00937609 0.0273257 0.00538501 0.105729 -0.0357484 0 0 0 -3.5987 -0.492471 -6.40935 0.01 
204 1 21 0.0159652 0.0113936 0.0360635 0.014013 0.142056 -0.0433841 0 0 0 -3.5987 -0.492471 -6.40935 0.01 
205 1 21 0.0152034 0.0134112 0.0448013 0.0226409 0.178384 -0.0510198 0 0 0 -3.5987 -0.492471 -6.40935 0.01 
206 1 21 0.0144415 0.0154287 0.0535391 0.0312689 0.214712 -0.0586555 0 0 0 -3.5987 -0.492471 -6.40935 0.01 
207 1 21 0.0136796 0.0174462 0.0622769 0.0398969 0.25104 -0.0662912 0 0 0 -3.5987 -0.492471 -6.40935 0.01 
208 1 21 0.0129178 0.0194638 0.0710147 0.0485248 0.287367 -0.0739269 0 0 0 -3.5987 -0.492471 -6.40935 0.01 
209 1 21 0.0121559 0.0214813 0.0797525 0.0571528 0.323695 -0.0815625 0 0 0 -3.5987 -0.492471 -6.40935 0.01 
210 1 21 0.0113941 0.0234988 0.0884903 0.0657807 0.360023 -0.0891982 0.0210896 0.31804 -0.573469 -3.5987 -0.492471 -6.40935 0.01 
211 1 22 0.00366482 0.216042 0.107617 0.068763 0.189571 -0.19377 0 0 0 5.06559 -2.97338 -0.795222 0.01 
212 1 22 0.00259429 0.212587 0.115859 0.041511 0.148675 -0.214451 0 0 0 5.06559 -2.97338 -0.795222 0.01 
213 1 22 0.00152376 0.209133 0.1241 0.0142591 0.107778 -0.235132 0 0 0 5.06559 -2.97338 -0.795222 0.01 
214 1 22 0.000453223 0.205679 0.132342 -0.0129929 0.0668813 -0.255813 0 0 0 5.06559 -2.97338 -0.795222 0.01 
215 1 22 -0.000617311 0.202225 0.140583 -0.0402449 0.0259846 -0.276494 0 0 0 5.06559 -2.97338 -0.795222 0.01 
216 1 22 -0.00168784 0.19877 0.148824 -0.0674968 -0.0149121 -0.297174 0 0 0 5.06559 -2.97338 -0.795222 0.01 
217 1 22 -0.00275838 0.195316 0.157066 -0.0947488 -0.0558089 -0.317855 0 0 0 5.06559 -2.97338 -0.795222 0.01 
218 1 22 -0.00382891 0.191862 0.165307 -0.122001 -0.0967056 -0.338536 0 0 0 5.06559 -2.97338 -0.795222 0.01 
219 1 22 -0.00489944 0.188408 0.173549 -0.149253 -0.137602 -0.359217 0 0 0 5.06559 -2.97338 -0.795222 0.01 
220 1 22 -0.00596998 0.184953 0.18179 -0.176505 -0.178499 -0.379898 0 0 0 5.06559 -2.97338 -0.795222 0.01 
221 1 23 0.210978 0.0520327 0.112129 -0.187764 -0.00529614 0.0366455 0 0 0 -2.67473 1.44906 -0.713406 0.01 
222 1 23 0.210648 0.0535956 0.120986 -0.173815 0.0186295 0.032943 0 0 0 -2.67473 1.44906 -0.713406 0.01 
223 1 23 0.210318 0.0551585 0.129843 -0.159865 0.0425552 0.0292406 0 0 0 -2.67473 1.44906 -0.713406 0.01 
224 1 23 0.209989 0.0567214 0.1387 -0.145916 0.0664809 0.0255381 0 0 0 -2.67473 1.44906 -0.713406 0.01 
225 1 23 0.209659 0.0582843 0.147557 -0.131967 0.0904066 0.0218356 -0.458589 0.670614 -0.878109 -2.67473 1.44906 -0.713406 0.01 
226 1 23 0.209329 0.0598472 0.156414 -0.118017 0.114332 0.0181331 0 0 0 -2.67473 1.44906 -0.713406 0.01 
227 1 23 0.208999 0.0614101 0.165271 -0.104068 0.138258 0.0144307 0 0 0 -2.67473 1.44906 -0.713406 0.01 
228 1 23 0.20867 0.0629729 0.174128 -0.0901182 0.162184 0.0107282 0 0 0 -2.67473 1.44906 -0.713406 0.01 
229 1 23 0.20834 0.0645358 0.182986 -0.0761688 0.186109 0.00702574 0 0 0 -2.67473 1.44906 -0.713406 0.01 
230 1 23 0.20801 0.0660987 0.191843 -0.0622193 0.210035 0.00332327 0 0 0 -2.67473 1.44906 -0.713406 0.01 
231 1 24 0.158632 0.022966 0.00957444 -0.00801852 -0.0125241 -0.0179968 1.45806 -2.13165 7.8388 2.29194 -0.429975 18.6455 0.01 
232 1 24 0.160346 0.0206724 0.0181069 0.0310782 -0.000129094 -0.0225168 0 0 0 2.29194 -0.429975 18.6455 0.01 
233 1 24 0.162059 0.0183788 0.0266394 0.0701748 0.0122659 -0.0270369 0 0 0 2.29194 -0.429975 18.6455 0.01 
234 1 24 0.163773 0.0160852 0.0351718 0.109272 0.0246608 -0.0315569 0 0 0 2.29194 -0.429975 18.6455 0.01 
235 1 24 0.165486 0.0137916 0.0437043 0.148368 0.0370558 -0.0360769 0 0 0 2.29194 -0.429975 18.6455 0.01 
236 1 24 0.1672 0.011498 0.0522368 0.187465 0.0494508 -0.0405969 0 0 0 2.29194 -0.429975 18.6455 0.01 
237 1 24 0.168914 0.00920437 0.0607692 0.226562 0.0618457 -0.0451169 0 0 0 2.29194 -0.429975 18.6455 0.01 
238 1 24 0.170627 0.00691076 0.0693017 0.265658 0.0742407 -0.0496369 0 0 0 2.29194 -0.429975 18.6455 0.01 
239 1 24 0.172341 0.00461715 0.0778342 0.304755 0.0866357 -0.0541569 0 0 0 2.29194 -0.429975 18.6455 0.01 
240 1 24 0.174054 0.00232354 0.0863666 0.343852 0.0990306 -0.0586769 -1.45181 2.60552 -6.78221 2.29194 -0.429975 18.6455 0.01 
241 1 25 0.134546 -0.174638 0.11003 0.0561731 -0.0910772 -0.12622 0.84132 -0.209043 4.97432 -2.73164 -0.559189 3.28438 0.01 
242 1 25 0.135158 -0.174259 0.119001 0.0499124 -0.0645613 -0.126912 0 0 0 -2.73164 -0.559189 3.28438 0.01 
243 1 25 0.13577 -0.173881 0.127973 0.0436518 -0.0380455 -0.127605 0 0 0 -2.73164 -0.559189 3.28438 0.01 
244 1 25 0.136382 -0.173502 0.136944 0.0373912 -0.0115296 -0.128297 0 0 0 -2.73164 -0.559189 3.28438 0.01 
245 1 25 0.136994 -0.173123 0.145915 0.0311306 0.0149863 -0.12899 0 0 0 -2.73164 -0.559189 3.28438 0.01 
246 1 25 0.137606 -0.172744 0.154886 0.02487 0.0415021 -0.129682 0 0 0 -2.73164 -0.559189 3.28438 0.01 
247 1 25 0.138218 -0.172365 0.163857 0.0186094 0.068018 -0.130375 0 0 0 -2.73164 -0.559189 3.28438 0.01 
248 1 25 0.13883 -0.171987 0.172829 0.0123487 0.0945338 -0.131067 0 0 0 -2.73164 -0.559189 3.28438 0.01 
249 1 25 0.139442 -0.171608 0.1818 0.00608812 0.12105 -0.13176 0 0 0 -2.73164 -0.559189 3.28438 0.01 
250 1 25 0.140054 -0.171229 0.190771 -0.000172503 0.147566 -0.132452 0 0 0 -2.73164 -0.559189 3.28438 0.01 
251 1 26 -0.00669721 -0.170605 0.00984093 -0.0112959 -0.0133689 -0.0155875 0.383084 -0.314319 2.0172 1.92986 -0.172746 3.56169 0.01 
252 1 26 -0.00551084 -0.172007 0.0186515 -0.0078244 -0.0261467 -0.0180882 0 0 0 1.92986 -0.172746 3.56169 0.01 
253 1 26 -0.00432448 -0.173409 0.0274622 -0.00435289 -0.0389245 -0.020589 0 0 0 1.92986 -0.172746 3.56169 0.01 
254 1 26 -0.00313811 -0.174811 0.0362728 -0.000881381 -0.0517023 -0.0230897 0 0 0 1.92986 -0.172746 3.56169 0.01 
255 1 26 -0.00195174 -0.176213 0.0450834 0.00259013 -0.0644801 -0.0255904 0 0 0 1.92986 -0.172746 3.56169 0.01 
256 1 26 -0.000765374 -0.177615 0.053894 0.00606164 -0.0772579 -0.0280912 0 0 0 1.92986 -0.172746 3.56169 0.01 
257 1 26 0.000420993 -0.179017 0.0627046 0.00953315 -0.0900357 -0.0305919 0 0 0 1.92986 -0.172746 3.56169 0.01 
258 1 26 0.00160736 -0.180419 0.0715152 0.0130047 -0.102814 -0.0330927 0 0 0 1.92986 -0.172746 3.56169 0.01 
259 1 26 0.00279373 -0.181821 0.0803258 0.0164762 -0.115591 -0.0355934 -0.329914 0.0115343 -0.0963204 1.92986 -0.172746 3.56169 0.01 
260 1 26 0.0039801 -0.183223 0.0891365 0.0199477 -0.128369 -0.0380941 0 0 0 1.92986 -0.172746 3.56169 0.01 
261 1 27 -0.124241 0.172201 0.116674 0.229205 0.378477 -0.05704 0 0 0 9.01529 1.03012 -7.05692 0.01 
262 1 27 -0.126701 0.168442 0.124473 0.210718 0.325522 -0.0883871 0 0 0 9.01529 1.03012 -7.05692 0.01 
263 1 27 -0.12916 0.164684 0.132272 0.192232 0.272566 -0.119734 -0.232367 0.922051 0.546985 9.01529 1.03012 -7.05692 0.01 
264 1 27 -0.13162 0.160926 0.140071 0.173745 0.219611 -0.151081 0 0 0 9.01529 1.03012 -7.05692 0.01 
265 1 27 -0.134079 0.157168 0.14787 0.155258 0.166655 -0.182429 0 0 0 9.01529 1.03012 -7.05692 0.01 
266 1 27 -0.136539 0.15341 0.155669 0.136771 0.1137 -0.213776 0 0 0 9.01529 1.03012 -7.05692 0.01 
267 1 27 -0.138998 0.149652 0.163469 0.118284 0.0607445 -0.245123 0 0 0 9.01529 1.03012 -7.05692 0.01 
268 1 27 -0.141458 0.145894 0.171268 0.0997976 0.00778898 -0.27647 0 0 0 9.01529 1.03012 -7.05692 0.01 
269 1 27 -0.143917 0.142136 0.179067 0.0813108 -0.0451665 -0.307817 0 0 0 9.01529 1.03012 -7.05692 0.01 